--
-- *****************************************************************************
-- *               Underground Hydrogen Storage Benchmark Study                *
-- *                         Version: 1.0 - License: CC BY                     *
-- *                    Clausthal University of Technology                     *
-- *****************************************************************************
--

SPECGRID                               
  61 61 12 1 F /

COORDSYS                               
  1 12 /

COORD                                  
  2*0 1171.859985 2*0 1197.23999 50 0 1170.819946 50 0 1196.170044 100 0 1169.75 100 0 1195.060059 150 0 1168.650024 150 0
  1193.920044 200 0 1167.530029 200 0 1192.76001 250 0 1166.390015 250 0 1191.579956 300 0 1165.23999 300 0 1190.390015 350 0
  1164.089966 350 0 1189.199951 400 0 1162.959961 400 0 1188.030029 450 0 1161.859985 450 0 1186.890015 500 0 1160.800049 500 0
  1185.790039 550 0 1159.790039 550 0 1184.73999 600 0 1158.829956 600 0 1183.75 650 0 1157.939941 650 0 1182.810059 700 0
  1157.099976 700 0 1181.939941 750 0 1156.319946 750 0 1181.130005 800 0 1155.599976 800 0 1180.369995 850 0 1154.930054 850 0
  1179.660034 900 0 1154.290039 900 0 1179 950 0 1153.689941 950 0 1178.359985 1000 0 1153.109985 1000 0 1177.76001 1050 0
  1152.550049 1050 0 1177.160034 1100 0 1151.98999 1100 0 1176.579956 1150 0 1151.439941 1150 0 1176.01001 1200 0 1150.890015 1200 0
  1175.439941 1250 0 1150.329956 1250 0 1174.869995 1300 0 1149.780029 1300 0 1174.310059 1350 0 1149.22998 1350 0 1173.75 1400 0
  1148.689941 1400 0 1173.199951 1450 0 1148.150024 1450 0 1172.670044 1500 0 1147.640015 1500 0 1172.170044 1550 0 1147.160034 1550
  0 1171.699951 1600 0 1146.719971 1600 0 1171.27002 1650 0 1146.319946 1650 0 1170.890015 1700 0 1145.98999 1700 0 1170.579956 1750
  0 1145.719971 1750 0 1170.339966 1800 0 1145.530029 1800 0 1170.189941 1850 0 1145.430054 1850 0 1170.130005 1900 0 1145.430054
  1900 0 1170.170044 1950 0 1145.52002 1950 0 1170.319946 2000 0 1145.719971 2000 0 1170.569946 2050 0 1146.030029 2050 0
  1170.949951 2100 0 1146.449951 2100 0 1171.430054 2150 0 1146.969971 2150 0 1172.02002 2200 0 1147.579956 2200 0 1172.709961 2250
  0 1148.280029 2250 0 1173.47998 2300 0 1149.040039 2300 0 1174.319946 2350 0 1149.859985 2350 0 1175.209961 2400 0 1150.699951
  2400 0 1176.140015 2450 0 1151.560059 2450 0 1177.079956 2500 0 1152.400024 2500 0 1178.01001 2550 0 1153.209961 2550 0
  1178.920044 2600 0 1153.949951 2600 0 1179.77002 2650 0 1154.609985 2650 0 1180.540039 2700 0 1155.160034 2700 0 1181.209961 2750
  0 1155.569946 2750 0 1181.75 2800 0 1155.819946 2800 0 1182.150024 2850 0 1155.900024 2850 0 1182.369995 2900 0 1155.790039 2900 0
  1182.420044 2950 0 1155.47998 2950 0 1182.27002 3000 0 1154.98999 3000 0 1181.939941 3050 0 1154.310059 3050 0 1181.420044 0 50
  1170.420044 0 50 1195.790039 2*50 1169.380005 2*50 1194.709961 100 50 1168.310059 100 50 1193.599976 150 50 1167.219971 150 50
  1192.469971 200 50 1166.109985 200 50 1191.329956 250 50 1164.98999 250 50 1190.170044 300 50 1163.869995 300 50 1189.01001 350 50
  1162.76001 350 50 1187.859985 400 50 1161.660034 400 50 1186.72998 450 50 1160.599976 450 50 1185.619995 500 50 1159.579956 500 50
  1184.560059 550 50 1158.609985 550 50 1183.560059 600 50 1157.689941 600 50 1182.599976 650 50 1156.829956 650 50 1181.709961 700
  50 1156.030029 700 50 1180.869995 750 50 1155.290039 750 50 1180.099976 800 50 1154.609985 800 50 1179.380005 850 50 1153.959961
  850 50 1178.699951 900 50 1153.359985 900 50 1178.069946 950 50 1152.790039 950 50 1177.469971 1000 50 1152.23999 1000 50
  1176.890015 1050 50 1151.709961 1050 50 1176.329956 1100 50 1151.180054 1100 50 1175.780029 1150 50 1150.650024 1150 50 1175.22998
  1200 50 1150.130005 1200 50 1174.689941 1250 50 1149.599976 1250 50 1174.150024 1300 50 1149.069946 1300 50 1173.599976 1350 50
  1148.540039 1350 50 1173.069946 1400 50 1148.02002 1400 50 1172.540039 1450 50 1147.51001 1450 50 1172.030029 1500 50 1147.02002
  1500 50 1171.550049 1550 50 1146.560059 1550 50 1171.089966 1600 50 1146.130005 1600 50 1170.680054 1650 50 1145.76001 1650 50
  1170.329956 1700 50 1145.439941 1700 50 1170.030029 1750 50 1145.189941 1750 50 1169.810059 1800 50 1145.02002 1800 50 1169.680054
  1850 50 1144.939941 1850 50 1169.630005 1900 50 1144.959961 1900 50 1169.689941 1950 50 1145.079956 1950 50 1169.859985 2000 50
  1145.300049 2000 50 1170.130005 2050 50 1145.630005 2050 50 1170.52002 2100 50 1146.069946 2100 50 1171.030029 2150 50 1146.599976
  2150 50 1171.630005 2200 50 1147.22998 2200 50 1172.339966 2250 50 1147.949951 2250 50 1173.119995 2300 50 1148.719971 2300 50
  1173.969971 2350 50 1149.550049 2350 50 1174.859985 2400 50 1150.400024 2400 50 1175.780029 2450 50 1151.26001 2450 50 1176.709961
  2500 50 1152.099976 2500 50 1177.630005 2550 50 1152.900024 2550 50 1178.52002 2600 50 1153.640015 2600 50 1179.339966 2650 50
  1154.290039 2650 50 1180.089966 2700 50 1154.829956 2700 50 1180.719971 2750 50 1155.219971 2750 50 1181.219971 2800 50
  1155.449951 2800 50 1181.569946 2850 50 1155.51001 2850 50 1181.75 2900 50 1155.369995 2900 50 1181.73999 2950 50 1155.040039 2950
  50 1181.540039 3000 50 1154.5 3000 50 1181.140015 3050 50 1153.780029 3050 50 1180.550049 0 100 1169.079956 0 100 1194.430054 50
  100 1168.030029 50 100 1193.339966 2*100 1166.959961 2*100 1192.23999 150 100 1165.880005 150 100 1191.119995 200 100 1164.780029
  200 100 1189.97998 250 100 1163.680054 250 100 1188.849976 300 100 1162.579956 300 100 1187.709961 350 100 1161.5 350 100
  1186.589966 400 100 1160.439941 400 100 1185.48999 450 100 1159.400024 450 100 1184.420044 500 100 1158.420044 500 100 1183.400024
  550 100 1157.47998 550 100 1182.420044 600 100 1156.589966 600 100 1181.5 650 100 1155.77002 650 100 1180.640015 700 100 1155 700
  100 1179.839966 750 100 1154.290039 750 100 1179.089966 800 100 1153.630005 800 100 1178.400024 850 100 1153.01001 850 100
  1177.76001 900 100 1152.439941 900 100 1177.150024 950 100 1151.890015 950 100 1176.569946 1000 100 1151.359985 1000 100
  1176.02002 1050 100 1150.849976 1050 100 1175.48999 1100 100 1150.349976 1100 100 1174.959961 1150 100 1149.849976 1150 100
  1174.439941 1200 100 1149.339966 1200 100 1173.910034 1250 100 1148.839966 1250 100 1173.390015 1300 100 1148.329956 1300 100
  1172.869995 1350 100 1147.819946 1350 100 1172.359985 1400 100 1147.319946 1400 100 1171.849976 1450 100 1146.829956 1450 100
  1171.359985 1500 100 1146.359985 1500 100 1170.900024 1550 100 1145.920044 1550 100 1170.469971 1600 100 1145.52002 1600 100
  1170.079956 1650 100 1145.170044 1650 100 1169.73999 1700 100 1144.880005 1700 100 1169.459961 1750 100 1144.650024 1750 100
  1169.27002 1800 100 1144.51001 1800 100 1169.150024 1850 100 1144.449951 1850 100 1169.130005 1900 100 1144.48999 1900 100
  1169.209961 1950 100 1144.630005 1950 100 1169.390015 2000 100 1144.880005 2000 100 1169.689941 2050 100 1145.22998 2050 100
  1170.099976 2100 100 1145.689941 2100 100 1170.619995 2150 100 1146.25 2150 100 1171.25 2200 100 1146.900024 2200 100 1171.969971
  2250 100 1147.619995 2250 100 1172.77002 2300 100 1148.410034 2300 100 1173.630005 2350 100 1149.23999 2350 100 1174.51001 2400
  100 1150.089966 2400 100 1175.430054 2450 100 1150.949951 2450 100 1176.349976 2500 100 1151.800049 2500 100 1177.25 2550 100
  1152.599976 2550 100 1178.119995 2600 100 1153.329956 2600 100 1178.920044 2650 100 1153.969971 2650 100 1179.640015 2700 100
  1154.48999 2700 100 1180.23999 2750 100 1154.859985 2750 100 1180.699951 2800 100 1155.069946 2800 100 1181.01001 2850 100
  1155.099976 2850 100 1181.140015 2900 100 1154.939941 2900 100 1181.079956 2950 100 1154.579956 2950 100 1180.819946 3000 100
  1154.01001 3000 100 1180.359985 3050 100 1153.26001 3050 100 1179.719971 0 150 1167.839966 0 150 1193.170044 50 150 1166.780029 50
  150 1192.069946 100 150 1165.709961 100 150 1190.969971 2*150 1164.630005 2*150 1189.849976 200 150 1163.540039 200 150 1188.72998
  250 150 1162.459961 250 150 1187.609985 300 150 1161.380005 300 150 1186.5 350 150 1160.310059 350 150 1185.400024 400 150
  1159.280029 400 150 1184.329956 450 150 1158.27002 450 150 1183.290039 500 150 1157.310059 500 150 1182.290039 550 150 1156.400024
  550 150 1181.349976 600 150 1155.540039 600 150 1180.459961 650 150 1154.73999 650 150 1179.619995 700 150 1154 700 150
  1178.849976 750 150 1153.310059 750 150 1178.119995 800 150 1152.670044 800 150 1177.449951 850 150 1152.079956 850 150
  1176.829956 900 150 1151.52002 900 150 1176.23999 950 150 1150.98999 950 150 1175.689941 1000 150 1150.48999 1000 150 1175.160034
  1050 150 1150 1050 150 1174.640015 1100 150 1149.51001 1100 150 1174.130005 1150 150 1149.030029 1150 150 1173.630005 1200 150
  1148.540039 1200 150 1173.119995 1250 150 1148.050049 1250 150 1172.619995 1300 150 1147.569946 1300 150 1172.119995 1350 150
  1147.079956 1350 150 1171.630005 1400 150 1146.599976 1400 150 1171.140015 1450 150 1146.130005 1450 150 1170.670044 1500 150
  1145.689941 1500 150 1170.22998 1550 150 1145.27002 1550 150 1169.819946 1600 150 1144.890015 1600 150 1169.449951 1650 150
  1144.569946 1650 150 1169.130005 1700 150 1144.300049 1700 150 1168.880005 1750 150 1144.099976 1750 150 1168.709961 1800 150
  1143.98999 1800 150 1168.619995 1850 150 1143.959961 1850 150 1168.619995 1900 150 1144.030029 1900 150 1168.719971 1950 150
  1144.189941 1950 150 1168.930054 2000 150 1144.459961 2000 150 1169.25 2050 150 1144.839966 2050 150 1169.680054 2100 150
  1145.319946 2100 150 1170.219971 2150 150 1145.900024 2150 150 1170.869995 2200 150 1146.569946 2200 150 1171.609985 2250 150
  1147.310059 2250 150 1172.430054 2300 150 1148.109985 2300 150 1173.290039 2350 150 1148.949951 2350 150 1174.180054 2400 150
  1149.800049 2400 150 1175.069946 2450 150 1150.650024 2450 150 1175.97998 2500 150 1151.48999 2500 150 1176.869995 2550 150
  1152.290039 2550 150 1177.719971 2600 150 1153.01001 2600 150 1178.5 2650 150 1153.630005 2650 150 1179.189941 2700 150
  1154.140015 2700 150 1179.76001 2750 150 1154.48999 2750 150 1180.189941 2800 150 1154.680054 2800 150 1180.449951 2850 150
  1154.689941 2850 150 1180.540039 2900 150 1154.5 2900 150 1180.430054 2950 150 1154.109985 2950 150 1180.130005 3000 150
  1153.52002 3000 150 1179.619995 3050 150 1152.72998 3050 150 1178.930054 0 200 1166.689941 0 200 1192.01001 50 200 1165.630005 50
  200 1190.910034 100 200 1164.550049 100 200 1189.800049 150 200 1163.469971 150 200 1188.689941 2*200 1162.390015 2*200
  1187.569946 250 200 1161.319946 250 200 1186.469971 300 200 1160.25 300 200 1185.369995 350 200 1159.209961 350 200 1184.290039
  400 200 1158.189941 400 200 1183.23999 450 200 1157.209961 450 200 1182.22998 500 200 1156.280029 500 200 1181.26001 550 200
  1155.390015 550 200 1180.339966 600 200 1154.550049 600 200 1179.469971 650 200 1153.77002 650 200 1178.650024 700 200 1153.040039
  700 200 1177.900024 750 200 1152.369995 750 200 1177.189941 800 200 1151.75 800 200 1176.540039 850 200 1151.170044 850 200
  1175.930054 900 200 1150.630005 900 200 1175.359985 950 200 1150.109985 950 200 1174.819946 1000 200 1149.619995 1000 200
  1174.300049 1050 200 1149.140015 1050 200 1173.800049 1100 200 1148.670044 1100 200 1173.300049 1150 200 1148.199951 1150 200
  1172.810059 1200 200 1147.72998 1200 200 1172.329956 1250 200 1147.26001 1250 200 1171.839966 1300 200 1146.790039 1300 200
  1171.359985 1350 200 1146.319946 1350 200 1170.880005 1400 200 1145.859985 1400 200 1170.420044 1450 200 1145.420044 1450 200
  1169.969971 1500 200 1145 1500 200 1169.550049 1550 200 1144.609985 1550 200 1169.160034 1600 200 1144.26001 1600 200 1168.810059
  1650 200 1143.959961 1650 200 1168.52002 1700 200 1143.719971 1700 200 1168.300049 1750 200 1143.550049 1750 200 1168.150024 1800
  200 1143.469971 1800 200 1168.079956 1850 200 1143.469971 1850 200 1168.109985 1900 200 1143.560059 1900 200 1168.22998 1950 200
  1143.76001 1950 200 1168.469971 2000 200 1144.060059 2000 200 1168.810059 2050 200 1144.459961 2050 200 1169.26001 2100 200
  1144.959961 2100 200 1169.819946 2150 200 1145.560059 2150 200 1170.47998 2200 200 1146.25 2200 200 1171.25 2250 200 1147.02002
  2250 200 1172.089966 2300 200 1147.829956 2300 200 1172.959961 2350 200 1148.660034 2350 200 1173.829956 2400 200 1149.51001 2400
  200 1174.719971 2450 200 1150.359985 2450 200 1175.609985 2500 200 1151.189941 2500 200 1176.48999 2550 200 1151.97998 2550 200
  1177.329956 2600 200 1152.689941 2600 200 1178.089966 2650 200 1153.300049 2650 200 1178.75 2700 200 1153.780029 2700 200
  1179.290039 2750 200 1154.119995 2750 200 1179.680054 2800 200 1154.290039 2800 200 1179.910034 2850 200 1154.27002 2850 200
  1179.959961 2900 200 1154.060059 2900 200 1179.819946 2950 200 1153.650024 2950 200 1179.469971 3000 200 1153.030029 3000 200
  1178.920044 3050 200 1152.22998 3050 200 1178.189941 0 250 1165.660034 0 250 1190.959961 50 250 1164.569946 50 250 1189.849976 100
  250 1163.48999 100 250 1188.72998 150 250 1162.410034 150 250 1187.619995 200 250 1161.329956 200 250 1186.51001 2*250 1160.27002
  2*250 1185.410034 300 250 1159.219971 300 250 1184.329956 350 250 1158.189941 350 250 1183.27002 400 250 1157.189941 400 250
  1182.23999 450 250 1156.219971 450 250 1181.23999 500 250 1155.300049 500 250 1180.290039 550 250 1154.430054 550 250 1179.390015
  600 250 1153.609985 600 250 1178.530029 650 250 1152.839966 650 250 1177.73999 700 250 1152.130005 700 250 1176.98999 750 250
  1151.469971 750 250 1176.300049 800 250 1150.859985 800 250 1175.660034 850 250 1150.290039 850 250 1175.060059 900 250 1149.75
  900 250 1174.5 950 250 1149.25 950 250 1173.969971 1000 250 1148.76001 1000 250 1173.459961 1050 250 1148.290039 1050 250
  1172.969971 1100 250 1147.829956 1100 250 1172.47998 1150 250 1147.369995 1150 250 1172.01001 1200 250 1146.910034 1200 250
  1171.530029 1250 250 1146.459961 1250 250 1171.060059 1300 250 1146.01001 1300 250 1170.599976 1350 250 1145.560059 1350 250
  1170.140015 1400 250 1145.119995 1400 250 1169.689941 1450 250 1144.699951 1450 250 1169.26001 1500 250 1144.300049 1500 250
  1168.859985 1550 250 1143.939941 1550 250 1168.5 1600 250 1143.609985 1600 250 1168.170044 1650 250 1143.349976 1650 250
  1167.910034 1700 250 1143.140015 1700 250 1167.709961 1750 250 1143 1750 250 1167.589966 1800 250 1142.949951 1800 250 1167.550049
  1850 250 1142.97998 1850 250 1167.599976 1900 250 1143.109985 1900 250 1167.75 1950 250 1143.329956 1950 250 1168.01001 2000 250
  1143.660034 2000 250 1168.369995 2050 250 1144.079956 2050 250 1168.839966 2100 250 1144.609985 2100 250 1169.410034 2150 250
  1145.219971 2150 250 1170.089966 2200 250 1145.930054 2200 250 1170.869995 2250 250 1146.719971 2250 250 1171.72998 2300 250
  1147.530029 2300 250 1172.599976 2350 250 1148.369995 2350 250 1173.47998 2400 250 1149.219971 2400 250 1174.359985 2450 250
  1150.069946 2450 250 1175.25 2500 250 1150.900024 2500 250 1176.130005 2550 250 1151.670044 2550 250 1176.949951 2600 250
  1152.369995 2600 250 1177.689941 2650 250 1152.969971 2650 250 1178.329956 2700 250 1153.430054 2700 250 1178.839966 2750 250
  1153.75 2750 250 1179.209961 2800 250 1153.900024 2800 250 1179.400024 2850 250 1153.859985 2850 250 1179.420044 2900 250
  1153.630005 2900 250 1179.23999 2950 250 1153.189941 2950 250 1178.849976 3000 250 1152.560059 3000 250 1178.280029 3050 250
  1151.73999 3050 250 1177.51001 0 300 1164.719971 0 300 1190.01001 50 300 1163.619995 50 300 1188.890015 100 300 1162.530029 100
  300 1187.77002 150 300 1161.439941 150 300 1186.650024 200 300 1160.369995 200 300 1185.540039 250 300 1159.300049 250 300
  1184.449951 2*300 1158.26001 2*300 1183.380005 350 300 1157.23999 350 300 1182.329956 400 300 1156.25 400 300 1181.310059 450 300
  1155.300049 450 300 1180.329956 500 300 1154.390015 500 300 1179.390015 550 300 1153.530029 550 300 1178.5 600 300 1152.719971 600
  300 1177.660034 650 300 1151.969971 650 300 1176.869995 700 300 1151.26001 700 300 1176.140015 750 300 1150.609985 750 300
  1175.459961 800 300 1150 800 300 1174.819946 850 300 1149.430054 850 300 1174.22998 900 300 1148.900024 900 300 1173.670044 950
  300 1148.400024 950 300 1173.140015 1000 300 1147.920044 1000 300 1172.640015 1050 300 1147.449951 1050 300 1172.150024 1100 300
  1147 1100 300 1171.670044 1150 300 1146.550049 1150 300 1171.209961 1200 300 1146.099976 1200 300 1170.73999 1250 300 1145.660034
  1250 300 1170.280029 1300 300 1145.219971 1300 300 1169.829956 1350 300 1144.790039 1350 300 1169.390015 1400 300 1144.369995 1400
  300 1168.959961 1450 300 1143.969971 1450 300 1168.550049 1500 300 1143.599976 1500 300 1168.170044 1550 300 1143.26001 1550 300
  1167.829956 1600 300 1142.969971 1600 300 1167.540039 1650 300 1142.72998 1650 300 1167.300049 1700 300 1142.560059 1700 300
  1167.130005 1750 300 1142.449951 1750 300 1167.030029 1800 300 1142.430054 1800 300 1167.02002 1850 300 1142.5 1850 300
  1167.099976 1900 300 1142.660034 1900 300 1167.27002 1950 300 1142.910034 1950 300 1167.550049 2000 300 1143.27002 2000 300
  1167.939941 2050 300 1143.719971 2050 300 1168.430054 2100 300 1144.26001 2100 300 1169.02002 2150 300 1144.900024 2150 300
  1169.709961 2200 300 1145.619995 2200 300 1170.48999 2250 300 1146.410034 2250 300 1171.339966 2300 300 1147.22998 2300 300
  1172.22998 2350 300 1148.079956 2350 300 1173.119995 2400 300 1148.939941 2400 300 1174.02002 2450 300 1149.790039 2450 300
  1174.910034 2500 300 1150.619995 2500 300 1175.780029 2550 300 1151.380005 2550 300 1176.589966 2600 300 1152.069946 2600 300
  1177.319946 2650 300 1152.650024 2650 300 1177.939941 2700 300 1153.099976 2700 300 1178.420044 2750 300 1153.390015 2750 300
  1178.76001 2800 300 1153.52002 2800 300 1178.930054 2850 300 1153.459961 2850 300 1178.910034 2900 300 1153.209961 2900 300
  1178.699951 2950 300 1152.76001 2950 300 1178.290039 3000 300 1152.109985 3000 300 1177.689941 3050 300 1151.280029 3050 300
  1176.900024 0 350 1163.880005 0 350 1189.170044 50 350 1162.77002 50 350 1188.030029 100 350 1161.660034 100 350 1186.900024 150
  350 1160.569946 150 350 1185.780029 200 350 1159.48999 200 350 1184.670044 250 350 1158.430054 250 350 1183.579956 300 350
  1157.390015 300 350 1182.51001 2*350 1156.369995 2*350 1181.459961 400 350 1155.390015 400 350 1180.449951 450 350 1154.449951 450
  350 1179.47998 500 350 1153.550049 500 350 1178.550049 550 350 1152.689941 550 350 1177.670044 600 350 1151.890015 600 350
  1176.839966 650 350 1151.140015 650 350 1176.060059 700 350 1150.439941 700 350 1175.329956 750 350 1149.780029 750 350
  1174.650024 800 350 1149.170044 800 350 1174.02002 850 350 1148.609985 850 350 1173.430054 900 350 1148.079956 900 350 1172.869995
  950 350 1147.569946 950 350 1172.339966 1000 350 1147.089966 1000 350 1171.839966 1050 350 1146.630005 1050 350 1171.349976 1100
  350 1146.170044 1100 350 1170.880005 1150 350 1145.72998 1150 350 1170.420044 1200 350 1145.290039 1200 350 1169.959961 1250 350
  1144.859985 1250 350 1169.51001 1300 350 1144.439941 1300 350 1169.069946 1350 350 1144.02002 1350 350 1168.650024 1400 350
  1143.619995 1400 350 1168.23999 1450 350 1143.25 1450 350 1167.849976 1500 350 1142.900024 1500 350 1167.48999 1550 350
  1142.589966 1550 350 1167.170044 1600 350 1142.319946 1600 350 1166.900024 1650 350 1142.119995 1650 350 1166.689941 1700 350
  1141.97998 1700 350 1166.550049 1750 350 1141.910034 1750 350 1166.47998 1800 350 1141.920044 1800 350 1166.5 1850 350 1142.02002
  1850 350 1166.609985 1900 350 1142.209961 1900 350 1166.810059 1950 350 1142.5 1950 350 1167.109985 2000 350 1142.880005 2000 350
  1167.52002 2050 350 1143.359985 2050 350 1168.030029 2100 350 1143.930054 2100 350 1168.640015 2150 350 1144.579956 2150 350
  1169.339966 2200 350 1145.310059 2200 350 1170.130005 2250 350 1146.109985 2250 350 1170.97998 2300 350 1146.949951 2300 350
  1171.880005 2350 350 1147.810059 2350 350 1172.790039 2400 350 1148.680054 2400 350 1173.699951 2450 350 1149.540039 2450 350
  1174.609985 2500 350 1150.359985 2500 350 1175.469971 2550 350 1151.119995 2550 350 1176.27002 2600 350 1151.790039 2600 350
  1176.97998 2650 350 1152.359985 2650 350 1177.589966 2700 350 1152.790039 2700 350 1178.050049 2750 350 1153.060059 2750 350
  1178.369995 2800 350 1153.170044 2800 350 1178.51001 2850 350 1153.089966 2850 350 1178.469971 2900 350 1152.819946 2900 350
  1178.22998 2950 350 1152.359985 2950 350 1177.790039 3000 350 1151.699951 3000 350 1177.170044 3050 350 1150.849976 3050 350
  1176.359985 0 400 1163.130005 0 400 1188.420044 50 400 1162.01001 50 400 1187.27002 100 400 1160.890015 100 400 1186.119995 150
  400 1159.790039 150 400 1184.98999 200 400 1158.699951 200 400 1183.880005 250 400 1157.630005 250 400 1182.790039 300 400
  1156.589966 300 400 1181.719971 350 400 1155.579956 350 400 1180.680054 2*400 1154.599976 2*400 1179.670044 450 400 1153.660034
  450 400 1178.709961 500 400 1152.76001 500 400 1177.780029 550 400 1151.910034 550 400 1176.910034 600 400 1151.109985 600 400
  1176.079956 650 400 1150.349976 650 400 1175.300049 700 400 1149.650024 700 400 1174.569946 750 400 1148.98999 750 400 1173.890015
  800 400 1148.380005 800 400 1173.25 850 400 1147.810059 850 400 1172.660034 900 400 1147.27002 900 400 1172.099976 950 400
  1146.77002 950 400 1171.569946 1000 400 1146.280029 1000 400 1171.060059 1050 400 1145.810059 1050 400 1170.569946 1100 400
  1145.359985 1100 400 1170.099976 1150 400 1144.920044 1150 400 1169.640015 1200 400 1144.48999 1200 400 1169.189941 1250 400
  1144.069946 1250 400 1168.75 1300 400 1143.650024 1300 400 1168.319946 1350 400 1143.25 1350 400 1167.910034 1400 400 1142.869995
  1400 400 1167.52002 1450 400 1142.52002 1450 400 1167.150024 1500 400 1142.199951 1500 400 1166.819946 1550 400 1141.910034 1550
  400 1166.52002 1600 400 1141.680054 1600 400 1166.280029 1650 400 1141.5 1650 400 1166.099976 1700 400 1141.400024 1700 400
  1165.97998 1750 400 1141.359985 1750 400 1165.939941 1800 400 1141.410034 1800 400 1165.98999 1850 400 1141.540039 1850 400
  1166.130005 1900 400 1141.77002 1900 400 1166.359985 1950 400 1142.089966 1950 400 1166.689941 2000 400 1142.51001 2000 400
  1167.130005 2050 400 1143.02002 2050 400 1167.660034 2100 400 1143.609985 2100 400 1168.290039 2150 400 1144.290039 2150 400 1169
  2200 400 1145.040039 2200 400 1169.800049 2250 400 1145.849976 2250 400 1170.670044 2300 400 1146.699951 2300 400 1171.579956 2350
  400 1147.579956 2350 400 1172.51001 2400 400 1148.459961 2400 400 1173.439941 2450 400 1149.319946 2450 400 1174.339966 2500 400
  1150.140015 2500 400 1175.209961 2550 400 1150.890015 2550 400 1176 2600 400 1151.550049 2600 400 1176.709961 2650 400 1152.099976
  2650 400 1177.290039 2700 400 1152.51001 2700 400 1177.73999 2750 400 1152.77002 2750 400 1178.030029 2800 400 1152.859985 2800
  400 1178.150024 2850 400 1152.76001 2850 400 1178.079956 2900 400 1152.47998 2900 400 1177.819946 2950 400 1152 2950 400
  1177.369995 3000 400 1151.329956 3000 400 1176.719971 3050 400 1150.47998 3050 400 1175.900024 0 450 1162.47998 0 450 1187.77002
  50 450 1161.339966 50 450 1186.599976 100 450 1160.199951 100 450 1185.439941 150 450 1159.089966 150 450 1184.300049 200 450
  1157.98999 200 450 1183.180054 250 450 1156.920044 250 450 1182.079956 300 450 1155.869995 300 450 1181.01001 350 450 1154.859985
  350 450 1179.969971 400 450 1153.869995 400 450 1178.969971 2*450 1152.930054 2*450 1178 500 450 1152.030029 500 450 1177.079956
  550 450 1151.180054 550 450 1176.199951 600 450 1150.369995 600 450 1175.369995 650 450 1149.619995 650 450 1174.589966 700 450
  1148.910034 700 450 1173.849976 750 450 1148.23999 750 450 1173.170044 800 450 1147.619995 800 450 1172.530029 850 450 1147.040039
  850 450 1171.920044 900 450 1146.5 900 450 1171.359985 950 450 1145.97998 950 450 1170.819946 1000 450 1145.48999 1000 450
  1170.310059 1050 450 1145.02002 1050 450 1169.819946 1100 450 1144.560059 1100 450 1169.339966 1150 450 1144.119995 1150 450
  1168.880005 1200 450 1143.689941 1200 450 1168.439941 1250 450 1143.280029 1250 450 1168.01001 1300 450 1142.880005 1300 450
  1167.589966 1350 450 1142.48999 1350 450 1167.189941 1400 450 1142.130005 1400 450 1166.810059 1450 450 1141.790039 1450 450
  1166.459961 1500 450 1141.48999 1500 450 1166.150024 1550 450 1141.23999 1550 450 1165.880005 1600 450 1141.030029 1600 450
  1165.670044 1650 450 1140.890015 1650 450 1165.51001 1700 450 1140.819946 1700 450 1165.430054 1750 450 1140.819946 1750 450
  1165.420044 1800 450 1140.900024 1800 450 1165.5 1850 450 1141.069946 1850 450 1165.670044 1900 450 1141.339966 1900 450
  1165.930054 1950 450 1141.689941 1950 450 1166.290039 2000 450 1142.140015 2000 450 1166.76001 2050 450 1142.680054 2050 450
  1167.319946 2100 450 1143.310059 2100 450 1167.969971 2150 450 1144.01001 2150 450 1168.709961 2200 450 1144.780029 2200 450
  1169.530029 2250 450 1145.619995 2250 450 1170.420044 2300 450 1146.48999 2300 450 1171.339966 2350 450 1147.380005 2350 450
  1172.290039 2400 450 1148.27002 2400 450 1173.22998 2450 450 1149.140015 2450 450 1174.140015 2500 450 1149.949951 2500 450
  1175.01001 2550 450 1150.699951 2550 450 1175.800049 2600 450 1151.349976 2600 450 1176.48999 2650 450 1151.890015 2650 450
  1177.069946 2700 450 1152.290039 2700 450 1177.5 2750 450 1152.530029 2750 450 1177.77002 2800 450 1152.599976 2800 450
  1177.869995 2850 450 1152.47998 2850 450 1177.780029 2900 450 1152.180054 2900 450 1177.5 2950 450 1151.689941 2950 450 1177.02002
  3000 450 1151.01001 3000 450 1176.369995 3050 450 1150.160034 3050 450 1175.540039 0 500 1161.920044 0 500 1187.209961 50 500
  1160.75 50 500 1186.02002 100 500 1159.599976 100 500 1184.849976 150 500 1158.469971 150 500 1183.689941 200 500 1157.359985 200
  500 1182.560059 250 500 1156.280029 250 500 1181.459961 300 500 1155.219971 300 500 1180.380005 350 500 1154.199951 350 500
  1179.329956 400 500 1153.209961 400 500 1178.319946 450 500 1152.27002 450 500 1177.349976 2*500 1151.359985 2*500 1176.430054 550
  500 1150.5 550 500 1175.540039 600 500 1149.689941 600 500 1174.709961 650 500 1148.920044 650 500 1173.920044 700 500 1148.199951
  700 500 1173.180054 750 500 1147.52002 750 500 1172.47998 800 500 1146.890015 800 500 1171.829956 850 500 1146.300049 850 500
  1171.219971 900 500 1145.73999 900 500 1170.640015 950 500 1145.219971 950 500 1170.099976 1000 500 1144.709961 1000 500
  1169.579956 1050 500 1144.23999 1050 500 1169.079956 1100 500 1143.780029 1100 500 1168.599976 1150 500 1143.329956 1150 500
  1168.140015 1200 500 1142.910034 1200 500 1167.699951 1250 500 1142.5 1250 500 1167.27002 1300 500 1142.099976 1300 500
  1166.859985 1350 500 1141.72998 1350 500 1166.47998 1400 500 1141.380005 1400 500 1166.109985 1450 500 1141.069946 1450 500
  1165.790039 1500 500 1140.790039 1500 500 1165.48999 1550 500 1140.560059 1550 500 1165.25 1600 500 1140.390015 1600 500
  1165.060059 1650 500 1140.280029 1650 500 1164.939941 1700 500 1140.23999 1700 500 1164.880005 1750 500 1140.27002 1750 500
  1164.910034 1800 500 1140.390015 1800 500 1165.02002 1850 500 1140.599976 1850 500 1165.219971 1900 500 1140.900024 1900 500
  1165.52002 1950 500 1141.300049 1950 500 1165.920044 2000 500 1141.780029 2000 500 1166.410034 2050 500 1142.359985 2050 500
  1167.01001 2100 500 1143.02002 2100 500 1167.689941 2150 500 1143.76001 2150 500 1168.469971 2200 500 1144.560059 2200 500
  1169.310059 2250 500 1145.410034 2250 500 1170.219971 2300 500 1146.310059 2300 500 1171.160034 2350 500 1147.219971 2350 500
  1172.130005 2400 500 1148.119995 2400 500 1173.079956 2450 500 1148.98999 2450 500 1174.01001 2500 500 1149.810059 2500 500
  1174.880005 2550 500 1150.560059 2550 500 1175.670044 2600 500 1151.209961 2600 500 1176.349976 2650 500 1151.72998 2650 500
  1176.920044 2700 500 1152.109985 2700 500 1177.329956 2750 500 1152.339966 2750 500 1177.589966 2800 500 1152.390015 2800 500
  1177.670044 2850 500 1152.26001 2850 500 1177.560059 2900 500 1151.949951 2900 500 1177.26001 2950 500 1151.439941 2950 500
  1176.77002 3000 500 1150.76001 3000 500 1176.109985 3050 500 1149.910034 3050 500 1175.27002 0 550 1161.449951 0 550 1186.73999 50
  550 1160.26001 50 550 1185.530029 100 550 1159.089966 100 550 1184.339966 150 550 1157.939941 150 550 1183.170044 200 550
  1156.810059 200 550 1182.02002 250 550 1155.709961 250 550 1180.910034 300 550 1154.650024 300 550 1179.819946 350 550 1153.609985
  350 550 1178.77002 400 550 1152.619995 400 550 1177.75 450 550 1151.660034 450 550 1176.77002 500 550 1150.73999 500 550
  1175.829956 2*550 1149.869995 2*550 1174.939941 600 550 1149.040039 600 550 1174.099976 650 550 1148.26001 650 550 1173.300049 700
  550 1147.530029 700 550 1172.550049 750 550 1146.839966 750 550 1171.839966 800 550 1146.189941 800 550 1171.170044 850 550
  1145.579956 850 550 1170.550049 900 550 1145.01001 900 550 1169.959961 950 550 1144.469971 950 550 1169.400024 1000 550
  1143.959961 1000 550 1168.869995 1050 550 1143.469971 1050 550 1168.359985 1100 550 1143 1100 550 1167.880005 1150 550 1142.560059
  1150 550 1167.420044 1200 550 1142.130005 1200 550 1166.97998 1250 550 1141.719971 1250 550 1166.550049 1300 550 1141.329956 1300
  550 1166.150024 1350 550 1140.969971 1350 550 1165.780029 1400 550 1140.640015 1400 550 1165.430054 1450 550 1140.349976 1450 550
  1165.119995 1500 550 1140.089966 1500 550 1164.849976 1550 550 1139.890015 1550 550 1164.630005 1600 550 1139.73999 1600 550
  1164.469971 1650 550 1139.660034 1650 550 1164.369995 1700 550 1139.650024 1700 550 1164.349976 1750 550 1139.719971 1750 550