<?xml version="1.0"?>
<VTKFile type="UnstructuredGrid" version="0.1" byte_order="LittleEndian">
  <UnstructuredGrid>
    <Piece NumberOfCells="100" NumberOfPoints="404">
      <CellData Scalars="pressure_water">
        <DataArray type="Float32" Name="pressure_water" NumberOfComponents="1" format="ascii">
          2.93448e+07 2.93448e+07 2.93448e+07 2.93448e+07 2.93448e+07 2.93448e+07 2.93448e+07 2.93448e+07 2.93448e+07 2.93448e+07 2.93448e+07 2.93448e+07
          2.93448e+07 2.93448e+07 2.93448e+07 2.93448e+07 2.93448e+07 2.93448e+07 2.93448e+07 2.93448e+07 2.93448e+07 2.93448e+07 2.93448e+07 2.93448e+07
          2.93448e+07 2.93448e+07 2.93448e+07 2.93448e+07 2.93448e+07 2.93448e+07 2.93448e+07 2.93448e+07 2.93448e+07 2.93448e+07 2.93448e+07 2.93448e+07
          2.93448e+07 2.93448e+07 2.93448e+07 2.93448e+07 2.93448e+07 2.93448e+07 2.93448e+07 2.93448e+07 2.93448e+07 2.93448e+07 2.93448e+07 2.93448e+07
          2.93448e+07 2.93447e+07 2.93447e+07 2.93447e+07 2.93447e+07 2.93447e+07 2.93447e+07 2.93447e+07 2.93447e+07 2.93447e+07 2.93447e+07 2.93447e+07
          2.93447e+07 2.93447e+07 2.93447e+07 2.93447e+07 2.93447e+07 2.93447e+07 2.93447e+07 2.93447e+07 2.93447e+07 2.93447e+07 2.93447e+07 2.93447e+07
          2.93447e+07 2.93447e+07 2.93447e+07 2.93447e+07 2.93447e+07 2.93447e+07 2.93447e+07 2.93447e+07 2.93447e+07 2.93447e+07 2.93447e+07 2.93447e+07
          2.93447e+07 2.93447e+07 2.93447e+07 2.93447e+07 2.93447e+07 2.93447e+07 2.93447e+07 2.93447e+07 2.93447e+07 2.93447e+07 2.93447e+07 2.93447e+07
          2.93447e+07 2.93447e+07 2.93447e+07 2.93447e+07
        </DataArray>
        <DataArray type="Float32" Name="pressure_oil" NumberOfComponents="1" format="ascii">
          2.93448e+07 2.93448e+07 2.93448e+07 2.93448e+07 2.93448e+07 2.93448e+07 2.93448e+07 2.93448e+07 2.93448e+07 2.93448e+07 2.93448e+07 2.93448e+07
          2.93448e+07 2.93448e+07 2.93448e+07 2.93448e+07 2.93448e+07 2.93448e+07 2.93448e+07 2.93448e+07 2.93448e+07 2.93448e+07 2.93448e+07 2.93448e+07
          2.93448e+07 2.93448e+07 2.93448e+07 2.93448e+07 2.93448e+07 2.93448e+07 2.93448e+07 2.93448e+07 2.93448e+07 2.93448e+07 2.93448e+07 2.93448e+07
          2.93448e+07 2.93448e+07 2.93448e+07 2.93448e+07 2.93448e+07 2.93448e+07 2.93448e+07 2.93448e+07 2.93448e+07 2.93448e+07 2.93448e+07 2.93448e+07
          2.93448e+07 2.93447e+07 2.93447e+07 2.93447e+07 2.93447e+07 2.93447e+07 2.93447e+07 2.93447e+07 2.93447e+07 2.93447e+07 2.93447e+07 2.93447e+07
          2.93447e+07 2.93447e+07 2.93447e+07 2.93447e+07 2.93447e+07 2.93447e+07 2.93447e+07 2.93447e+07 2.93447e+07 2.93447e+07 2.93447e+07 2.93447e+07
          2.93447e+07 2.93447e+07 2.93447e+07 2.93447e+07 2.93447e+07 2.93447e+07 2.93447e+07 2.93447e+07 2.93447e+07 2.93447e+07 2.93447e+07 2.93447e+07
          2.93447e+07 2.93447e+07 2.93447e+07 2.93447e+07 2.93447e+07 2.93447e+07 2.93447e+07 2.93447e+07 2.93447e+07 2.93447e+07 2.93447e+07 2.93447e+07
          2.93447e+07 2.93447e+07 2.93447e+07 2.93447e+07
        </DataArray>
        <DataArray type="Float32" Name="pressure_gas" NumberOfComponents="1" format="ascii">
          0 0 0 0 0 0 0 0 0 0 0 0
          0 0 0 0 0 0 0 0 0 0 0 0
          0 0 0 0 0 0 0 0 0 0 0 0
          0 0 0 0 0 0 0 0 0 0 0 0
          0 0 0 0 0 0 0 0 0 0 0 0
          0 0 0 0 0 0 0 0 0 0 0 0
          0 0 0 0 0 0 0 0 0 0 0 0
          0 0 0 0 0 0 0 0 0 0 0 0
          0 0 0 0
        </DataArray>
        <DataArray type="Float32" Name="saturation_water" NumberOfComponents="1" format="ascii">
          1 1 1 1 1 1 1 1 1 1 1 1
          1 1 1 1 1 1 1 1 1 1 1 1
          1 1 1 1 1 1 1 1 1 1 1 1
          1 1 1 1 1 1 1 1 1 1 1 1
          1 1 1 1 1 1 1 1 1 1 1 1
          1 1 1 1 1 1 1 1 1 1 1 1
          1 1 1 1 1 1 1 1 1 1 1 1
          1 1 1 1 1 1 1 1 1 1 1 1
          1 1 1 1
        </DataArray>
        <DataArray type="Float32" Name="saturation_oil" NumberOfComponents="1" format="ascii">
          -0 -0 -0 -0 -0 -0 -0 -0 -0 -0 -0 -0
          -0 -0 -0 -0 -0 -0 -0 -0 -0 -0 -0 -0
          -0 -0 -0 -0 -0 -0 -0 -0 -0 -0 -0 -0
          -0 -0 -0 -0 -0 -0 -0 -0 -0 -0 -0 -0
          -0 -0 -0 -0 -0 -0 -0 -0 -0 -0 -0 -0
          -0 -0 -0 -0 -0 -0 -0 -0 -0 -0 -0 -0
          -0 -0 -0 -0 -0 -0 -0 -0 -0 -0 -0 -0
          -0 -0 -0 -0 -0 -0 -0 -0 -0 -0 -0 -0
          -0 -0 -0 -0
        </DataArray>
        <DataArray type="Float32" Name="saturation_gas" NumberOfComponents="1" format="ascii">
          0 0 0 0 0 0 0 0 0 0 0 0
          0 0 0 0 0 0 0 0 0 0 0 0
          0 0 0 0 0 0 0 0 0 0 0 0
          0 0 0 0 0 0 0 0 0 0 0 0
          0 0 0 0 0 0 0 0 0 0 0 0
          0 0 0 0 0 0 0 0 0 0 0 0
          0 0 0 0 0 0 0 0 0 0 0 0
          0 0 0 0 0 0 0 0 0 0 0 0
          0 0 0 0
        </DataArray>
        <DataArray type="Float32" Name="mobility_water" NumberOfComponents="1" format="ascii">
          4000.06 4000.06 4000.05 4000.03 3999.99 3999.91 3999.81 3999.66 3999.5 3999.32 3999.14 3998.98
          3998.86 3998.77 3998.73 3998.74 3998.78 3998.87 3998.98 3999.12 3999.26 3999.42 3999.57 3999.72
          3999.86 3999.99 4000.1 4000.2 4000.28 4000.35 4000.41 4000.45 4000.49 4000.52 4000.54 4000.55
          4000.56 4000.57 4000.58 4000.58 4000.59 4000.59 4000.59 4000.59 4000.59 4000.59 4000.59 4000.59
          4000.59 4000.59 4000.59 4000.59 4000.59 4000.59 4000.59 4000.59 4000.59 4000.59 4000.59 4000.59
          4000.59 4000.59 4000.59 4000.59 4000.59 4000.59 4000.59 4000.59 4000.59 4000.59 4000.59 4000.59
          4000.59 4000.59 4000.59 4000.59 4000.59 4000.59 4000.59 4000.59 4000.59 4000.59 4000.59 4000.59
          4000.59 4000.59 4000.59 4000.59 4000.59 4000.59 4000.59 4000.59 4000.59 4000.59 4000.59 4000.59
          4000.59 4000.59 4000.59 4000.59
        </DataArray>
        <DataArray type="Float32" Name="mobility_oil" NumberOfComponents="1" format="ascii">
          0 0 0 0 0 0 0 0 0 0 0 0
          0 0 0 0 0 0 0 0 0 0 0 0
          0 0 0 0 0 0 0 0 0 0 0 0
          0 0 0 0 0 0 0 0 0 0 0 0
          0 0 0 0 0 0 0 0 0 0 0 0
          0 0 0 0 0 0 0 0 0 0 0 0
          0 0 0 0 0 0 0 0 0 0 0 0
          0 0 0 0 0 0 0 0 0 0 0 0
          0 0 0 0
        </DataArray>
        <DataArray type="Float32" Name="mobility_gas" NumberOfComponents="1" format="ascii">
          0 0 0 0 0 0 0 0 0 0 0 0
          0 0 0 0 0 0 0 0 0 0 0 0
          0 0 0 0 0 0 0 0 0 0 0 0
          0 0 0 0 0 0 0 0 0 0 0 0
          0 0 0 0 0 0 0 0 0 0 0 0
          0 0 0 0 0 0 0 0 0 0 0 0
          0 0 0 0 0 0 0 0 0 0 0 0
          0 0 0 0 0 0 0 0 0 0 0 0
          0 0 0 0
        </DataArray>
        <DataArray type="Float32" Name="leakage_water" NumberOfComponents="1" format="ascii">
          2.62555e-12 5.22573e-12 7.74552e-12 1.00632e-11 1.19726e-11 1.31892e-11 1.33797e-11 1.33797e-11 1.2229e-11 9.48415e-12 5.00355e-12 9.05924e-12
          1.82707e-11 2.85338e-11 3.94796e-11 5.07266e-11 6.19098e-11 7.27023e-11 8.2831e-11 9.20842e-11 1.00315e-10 1.07438e-10 1.13425e-10 1.18294e-10
          1.22104e-10 1.24938e-10 1.26899e-10 1.28097e-10 1.28643e-10 1.28646e-10 1.28646e-10 1.28203e-10 1.27402e-10 1.26318e-10 1.25016e-10 1.23545e-10
          1.2195e-10 1.20261e-10 1.18504e-10 1.16698e-10 1.14857e-10 1.12992e-10 1.1111e-10 1.09216e-10 1.07314e-10 1.05407e-10 1.03497e-10 1.01584e-10
          9.96703e-11 9.77553e-11 9.58396e-11 9.39235e-11 9.20071e-11 9.00906e-11 8.8174e-11 8.62573e-11 8.43406e-11 8.24239e-11 8.05072e-11 7.85904e-11
          7.66736e-11 7.47569e-11 7.28401e-11 7.09233e-11 6.90065e-11 6.70897e-11 6.51729e-11 6.32561e-11 6.13393e-11 5.94225e-11 5.75057e-11 5.55888e-11
          5.3672e-11 5.17552e-11 4.98384e-11 4.79215e-11 4.60047e-11 4.40878e-11 4.2171e-11 4.02542e-11 3.83373e-11 3.64205e-11 3.45036e-11 3.25867e-11
          3.06699e-11 2.8753e-11 2.68362e-11 2.49193e-11 2.30024e-11 2.10856e-11 1.91687e-11 1.72518e-11 1.5335e-11 1.34181e-11 1.15012e-11 9.58436e-12
          7.66749e-12 5.75062e-12 3.83375e-12 1.91687e-12
        </DataArray>
        <DataArray type="Float32" Name="leakage_oil" NumberOfComponents="1" format="ascii">
          0 0 0 0 0 0 0 0 0 0 0 0
          0 0 0 0 0 0 0 0 0 0 0 0
          0 0 0 0 0 0 0 0 0 0 0 0
          0 0 0 0 0 0 0 0 0 0 0 0
          0 0 0 0 0 0 0 0 0 0 0 0
          0 0 0 0 0 0 0 0 0 0 0 0
          0 0 0 0 0 0 0 0 0 0 0 0
          0 0 0 0 0 0 0 0 0 0 0 0
          0 0 0 0
        </DataArray>
        <DataArray type="Float32" Name="leakage_gas" NumberOfComponents="1" format="ascii">
          0 0 0 0 0 0 0 0 0 0 0 0
          0 0 0 0 0 0 0 0 0 0 0 0
          0 0 0 0 0 0 0 0 0 0 0 0
          0 0 0 0 0 0 0 0 0 0 0 0
          0 0 0 0 0 0 0 0 0 0 0 0
          0 0 0 0 0 0 0 0 0 0 0 0
          0 0 0 0 0 0 0 0 0 0 0 0
          0 0 0 0 0 0 0 0 0 0 0 0
          0 0 0 0
        </DataArray>
        <DataArray type="Float32" Name="permeability" NumberOfComponents="1" format="ascii">
          -0.00141125 -0.00141763 -0.00126743 -0.000776093 0.000287589 0.00213155 0.00486061 0.0084268 0.0126189 0.0171041 0.0214922 0.0254057
          0.0285306 0.0306512 0.0316588 0.0315441 0.0303802 0.0283016 0.0254824 0.0221163 0.0184003 0.0145203 0.0106414 0.00690073
          0.00340388 0.000224248 -0.00259504 -0.00503739 -0.00710781 -0.00882753 -0.0102286 -0.0113496 -0.0122308 -0.0129122 -0.0134308 -0.0138194
          -0.0141065 -0.0143156 -0.0144658 -0.0145723 -0.014647 -0.0146986 -0.014734 -0.0147578 -0.0147738 -0.0147844 -0.0147913 -0.0147958
          -0.0147987 -0.0148005 -0.0148017 -0.0148024 -0.0148028 -0.0148031 -0.0148032 -0.0148033 -0.0148033 -0.0148034 -0.0148034 -0.0148034
          -0.0148034 -0.0148033 -0.0148033 -0.0148033 -0.0148033 -0.0148033 -0.0148033 -0.0148033 -0.0148032 -0.0148032 -0.0148032 -0.0148032
          -0.0148032 -0.0148032 -0.0148032 -0.0148032 -0.0148031 -0.0148031 -0.0148031 -0.0148031 -0.0148031 -0.0148031 -0.0148031 -0.0148031
          -0.0148031 -0.0148031 -0.0148031 -0.0148031 -0.0148031 -0.0148031 -0.014803 -0.014803 -0.014803 -0.014803 -0.014803 -0.014803
          -0.014803 -0.014803 -0.014803 -0.014803
        </DataArray>
        <DataArray type="Float32" Name="porosity" NumberOfComponents="1" format="ascii">
          0.15 0.15 0.15 0.15 0.15 0.15 0.149999 0.149999 0.149998 0.149997 0.149996 0.149996
          0.149995 0.149995 0.149995 0.149995 0.149995 0.149995 0.149996 0.149996 0.149997 0.149998 0.149998 0.149999
          0.149999 0.15 0.15 0.150001 0.150001 0.150001 0.150002 0.150002 0.150002 0.150002 0.150002 0.150002
          0.150002 0.150002 0.150002 0.150002 0.150002 0.150002 0.150002 0.150002 0.150002 0.150002 0.150002 0.150002
          0.150002 0.150002 0.150002 0.150002 0.150002 0.150002 0.150002 0.150002 0.150002 0.150002 0.150002 0.150002
          0.150002 0.150002 0.150002 0.150002 0.150002 0.150002 0.150002 0.150002 0.150002 0.150002 0.150002 0.150002
          0.150002 0.150002 0.150002 0.150002 0.150002 0.150002 0.150002 0.150002 0.150002 0.150002 0.150002 0.150002
          0.150002 0.150002 0.150002 0.150002 0.150002 0.150002 0.150002 0.150002 0.150002 0.150002 0.150002 0.150002
          0.150002 0.150002 0.150002 0.150002
        </DataArray>
        <DataArray type="Float32" Name="temperature" NumberOfComponents="1" format="ascii">
          288.705 288.705 288.705 288.705 288.705 288.705 288.705 288.705 288.705 288.705 288.705 288.705
          288.705 288.705 288.705 288.705 288.705 288.705 288.705 288.705 288.705 288.705 288.705 288.705
          288.705 288.705 288.705 288.705 288.705 288.705 288.705 288.705 288.705 288.705 288.705 288.705
          288.705 288.705 288.705 288.705 288.705 288.705 288.705 288.705 288.705 288.705 288.705 288.705
          288.705 288.705 288.705 288.705 288.705 288.705 288.705 288.705 288.705 288.705 288.705 288.705
          288.705 288.705 288.705 288.705 288.705 288.705 288.705 288.705 288.705 288.705 288.705 288.705
          288.705 288.705 288.705 288.705 288.705 288.705 288.705 288.705 288.705 288.705 288.705 288.705
          288.705 288.705 288.705 288.705 288.705 288.705 288.705 288.705 288.705 288.705 288.705 288.705
          288.705 288.705 288.705 288.705
        </DataArray>
        <DataArray type="Float32" Name="urea concentration" NumberOfComponents="1" format="ascii">
          0 0 0 0 0 0 0 0 0 0 0 0
          0 0 0 0 0 0 0 0 0 0 0 0
          0 0 0 0 0 0 0 0 0 0 0 0
          0 0 0 0 0 0 0 0 0 0 0 0
          0 0 0 0 0 0 0 0 0 0 0 0
          0 0 0 0 0 0 0 0 0 0 0 0
          0 0 0 0 0 0 0 0 0 0 0 0
          0 0 0 0 0 0 0 0 0 0 0 0
          0 0 0 0
        </DataArray>
        <DataArray type="Float32" Name="bacteria concentration" NumberOfComponents="1" format="ascii">
          1.09441e-06 7.71815e-06 3.18416e-05 9.43536e-05 0.000221765 0.000438558 0.000758389 0.00117787 0.00167573 0.00221659 0.00275797 0.0032577
          0.00368008 0.00399942 0.00420138 0.00428241 0.00424804 0.0041108 0.00388784 0.00359892 0.00326455 0.0029045 0.00253659 0.00217595
          0.00183451 0.00152086 0.00124043 0.0009958 0.000787198 0.000613054 0.000470544 0.000356103 0.000265829 0.000195819 0.000142398 0.000102262
          7.25522e-05 5.08711e-05 3.52636e-05 2.4175e-05 1.63959e-05 1.10044e-05 7.31138e-06 4.81016e-06 3.13453e-06 2.02375e-06 1.29487e-06 8.21288e-07
          5.16498e-07 3.22144e-07 1.99314e-07 1.22356e-07 7.45433e-08 4.50788e-08 2.70647e-08 1.61355e-08 9.55411e-09 5.61954e-09 3.28389e-09 1.90688e-09
          1.10046e-09 6.31258e-10 3.59985e-10 2.04112e-10 1.15084e-10 6.45337e-11 3.59944e-11 1.99716e-11 1.10249e-11 6.05575e-12 3.3101e-12 1.8007e-12
          9.75019e-13 5.25534e-13 2.81998e-13 1.50658e-13 8.01447e-14 4.24556e-14 2.23981e-14 1.17689e-14 6.15954e-15 3.2113e-15 1.66788e-15 8.63049e-16
          4.44961e-16 2.28589e-16 1.17021e-16 5.97008e-17 3.03548e-17 1.53828e-17 7.77012e-18 3.91231e-18 1.9637e-18 9.82601e-19 4.9019e-19 2.43814e-19
          1.20916e-19 5.97943e-20 2.93372e-20 1.46478e-20
        </DataArray>
        <DataArray type="Float32" Name="biofilm" NumberOfComponents="1" format="ascii">
          2.23208e-06 2.23101e-06 2.25605e-06 2.33794e-06 2.51522e-06 2.82255e-06 3.2774e-06 3.87179e-06 4.57053e-06 5.31814e-06 6.04959e-06 6.70193e-06
          7.22284e-06 7.57635e-06 7.74432e-06 7.72519e-06 7.53116e-06 7.18467e-06 6.7147e-06 6.1536e-06 5.53417e-06 4.88743e-06 4.24089e-06 3.61741e-06
          3.03457e-06 2.50462e-06 2.03474e-06 1.62769e-06 1.28263e-06 9.96017e-07 7.62512e-07 5.75698e-07 4.28829e-07 3.15268e-07 2.28845e-07 1.64071e-07
          1.16226e-07 8.13784e-08 5.63373e-08 3.85752e-08 2.61327e-08 1.7521e-08 1.16296e-08 7.64408e-09 4.97694e-09 3.21067e-09 2.05275e-09 1.30105e-09
          8.17662e-10 5.09657e-10 3.1514e-10 1.9335e-10 1.17731e-10 7.11595e-11 4.27024e-11 2.54466e-11 1.50607e-11 8.8547e-12 5.17234e-12 3.00231e-12
          1.732e-12 9.93181e-13 5.66187e-13 3.20925e-13 1.80892e-13 1.01405e-13 5.65439e-14 3.13651e-14 1.73099e-14 9.50556e-15 5.19452e-15 2.82517e-15
          1.52939e-15 8.24162e-16 4.42148e-16 2.3617e-16 1.2561e-16 6.65278e-17 3.50913e-17 1.84353e-17 9.64691e-18 5.02862e-18 2.61135e-18 1.35104e-18
          6.96452e-19 3.57735e-19 1.8311e-19 9.34044e-20 4.74852e-20 2.40608e-20 1.21521e-20 6.11791e-21 3.0704e-21 1.5362e-21 7.66283e-22 3.811e-22
          1.88982e-22 9.34447e-23 4.5848e-23 2.28822e-23
        </DataArray>
        <DataArray type="Float32" Name="calcite" NumberOfComponents="1" format="ascii">
          0 0 0 0 0 0 0 0 0 0 0 0
          0 0 0 0 0 0 0 0 0 0 0 0
          0 0 0 0 0 0 0 0 0 0 0 0
          0 0 0 0 0 0 0 0 0 0 0 0
          0 0 0 0 0 0 0 0 0 0 0 0
          0 0 0 0 0 0 0 0 0 0 0 0
          0 0 0 0 0 0 0 0 0 0 0 0
          0 0 0 0 0 0 0 0 0 0 0 0
          0 0 0 0
        </DataArray>
        <DataArray type="Float32" Name="oxygen concentration" NumberOfComponents="1" format="ascii">
          0 0 0 0 0 0 0 0 0 0 0 0
          0 0 0 0 0 0 0 0 0 0 0 0
          0 0 0 0 0 0 0 0 0 0 0 0
          0 0 0 0 0 0 0 0 0 0 0 0
          0 0 0 0 0 0 0 0 0 0 0 0
          0 0 0 0 0 0 0 0 0 0 0 0
          0 0 0 0 0 0 0 0 0 0 0 0
          0 0 0 0 0 0 0 0 0 0 0 0
          0 0 0 0
        </DataArray>
      </CellData>
      <Points>
        <DataArray type="Float32" Name="Coordinates" NumberOfComponents="3" format="ascii">
          0 0 1 1 0 1 0 1 1 1 1 1
          0 0 2 1 0 2 0 1 2 1 1 2
          2 0 1 2 1 1 2 0 2 2 1 2
          3 0 1 3 1 1 3 0 2 3 1 2
          4 0 1 4 1 1 4 0 2 4 1 2
          5 0 1 5 1 1 5 0 2 5 1 2
          6 0 1 6 1 1 6 0 2 6 1 2
          7 0 1 7 1 1 7 0 2 7 1 2
          8 0 1 8 1 1 8 0 2 8 1 2
          9 0 1 9 1 1 9 0 2 9 1 2
          10 0 1 10 1 1 10 0 2 10 1 2
          11 0 1 11 1 1 11 0 2 11 1 2
          12 0 1 12 1 1 12 0 2 12 1 2
          13 0 1 13 1 1 13 0 2 13 1 2
          14 0 1 14 1 1 14 0 2 14 1 2
          15 0 1 15 1 1 15 0 2 15 1 2
          16 0 1 16 1 1 16 0 2 16 1 2
          17 0 1 17 1 1 17 0 2 17 1 2
          18 0 1 18 1 1 18 0 2 18 1 2
          19 0 1 19 1 1 19 0 2 19 1 2
          20 0 1 20 1 1 20 0 2 20 1 2
          21 0 1 21 1 1 21 0 2 21 1 2
          22 0 1 22 1 1 22 0 2 22 1 2
          23 0 1 23 1 1 23 0 2 23 1 2
          24 0 1 24 1 1 24 0 2 24 1 2
          25 0 1 25 1 1 25 0 2 25 1 2
          26 0 1 26 1 1 26 0 2 26 1 2
          27 0 1 27 1 1 27 0 2 27 1 2
          28 0 1 28 1 1 28 0 2 28 1 2
          29 0 1 29 1 1 29 0 2 29 1 2
          30 0 1 30 1 1 30 0 2 30 1 2
          31 0 1 31 1 1 31 0 2 31 1 2
          32 0 1 32 1 1 32 0 2 32 1 2
          33 0 1 33 1 1 33 0 2 33 1 2
          34 0 1 34 1 1 34 0 2 34 1 2
          35 0 1 35 1 1 35 0 2 35 1 2
          36 0 1 36 1 1 36 0 2 36 1 2
          37 0 1 37 1 1 37 0 2 37 1 2
          38 0 1 38 1 1 38 0 2 38 1 2
          39 0 1 39 1 1 39 0 2 39 1 2
          40 0 1 40 1 1 40 0 2 40 1 2
          41 0 1 41 1 1 41 0 2 41 1 2
          42 0 1 42 1 1 42 0 2 42 1 2
          43 0 1 43 1 1 43 0 2 43 1 2
          44 0 1 44 1 1 44 0 2 44 1 2
          45 0 1 45 1 1 45 0 2 45 1 2
          46 0 1 46 1 1 46 0 2 46 1 2
          47 0 1 47 1 1 47 0 2 47 1 2
          48 0 1 48 1 1 48 0 2 48 1 2
          49 0 1 49 1 1 49 0 2 49 1 2
          50 0 1 50 1 1 50 0 2 50 1 2
          51 0 1 51 1 1 51 0 2 51 1 2
          52 0 1 52 1 1 52 0 2 52 1 2
          53 0 1 53 1 1 53 0 2 53 1 2
          54 0 1 54 1 1 54 0 2 54 1 2
          55 0 1 55 1 1 55 0 2 55 1 2
          56 0 1 56 1 1 56 0 2 56 1 2
          57 0 1 57 1 1 57 0 2 57 1 2
          58 0 1 58 1 1 58 0 2 58 1 2
          59 0 1 59 1 1 59 0 2 59 1 2
          60 0 1 60 1 1 60 0 2 60 1 2
          61 0 1 61 1 1 61 0 2 61 1 2
          62 0 1 62 1 1 62 0 2 62 1 2
          63 0 1 63 1 1 63 0 2 63 1 2
          64 0 1 64 1 1 64 0 2 64 1 2
          65 0 1 65 1 1 65 0 2 65 1 2
          66 0 1 66 1 1 66 0 2 66 1 2
          67 0 1 67 1 1 67 0 2 67 1 2
          68 0 1 68 1 1 68 0 2 68 1 2
          69 0 1 69 1 1 69 0 2 69 1 2
          70 0 1 70 1 1 70 0 2 70 1 2
          71 0 1 71 1 1 71 0 2 71 1 2
          72 0 1 72 1 1 72 0 2 72 1 2
          73 0 1 73 1 1 73 0 2 73 1 2
          74 0 1 74 1 1 74 0 2 74 1 2
          75 0 1 75 1 1 75 0 2 75 1 2
          76 0 1 76 1 1 76 0 2 76 1 2
          77 0 1 77 1 1 77 0 2 77 1 2
          78 0 1 78 1 1 78 0 2 78 1 2
          79 0 1 79 1 1 79 0 2 79 1 2
          80 0 1 80 1 1 80 0 2 80 1 2
          81 0 1 81 1 1 81 0 2 81 1 2
          82 0 1 82 1 1 82 0 2 82 1 2
          83 0 1 83 1 1 83 0 2 83 1 2
          84 0 1 84 1 1 84 0 2 84 1 2
          85 0 1 85 1 1 85 0 2 85 1 2
          86 0 1 86 1 1 86 0 2 86 1 2
          87 0 1 87 1 1 87 0 2 87 1 2
          88 0 1 88 1 1 88 0 2 88 1 2
          89 0 1 89 1 1 89 0 2 89 1 2
          90 0 1 90 1 1 90 0 2 90 1 2
          91 0 1 91 1 1 91 0 2 91 1 2
          92 0 1 92 1 1 92 0 2 92 1 2
          93 0 1 93 1 1 93 0 2 93 1 2
          94 0 1 94 1 1 94 0 2 94 1 2
          95 0 1 95 1 1 95 0 2 95 1 2
          96 0 1 96 1 1 96 0 2 96 1 2
          97 0 1 97 1 1 97 0 2 97 1 2
          98 0 1 98 1 1 98 0 2 98 1 2
          99 0 1 99 1 1 99 0 2 99 1 2
          100 0 1 100 1 1 100 0 2 100 1 2
        </DataArray>
      </Points>
      <Cells>
        <DataArray type="Int32" Name="connectivity" NumberOfComponents="1" format="ascii">
          0 1 3 2 4 5 7 6 1 8 9 3
          5 10 11 7 8 12 13 9 10 14 15 11
          12 16 17 13 14 18 19 15 16 20 21 17
          18 22 23 19 20 24 25 21 22 26 27 23
          24 28 29 25 26 30 31 27 28 32 33 29
          30 34 35 31 32 36 37 33 34 38 39 35
          36 40 41 37 38 42 43 39 40 44 45 41
          42 46 47 43 44 48 49 45 46 50 51 47
          48 52 53 49 50 54 55 51 52 56 57 53
          54 58 59 55 56 60 61 57 58 62 63 59
          60 64 65 61 62 66 67 63 64 68 69 65
          66 70 71 67 68 72 73 69 70 74 75 71
          72 76 77 73 74 78 79 75 76 80 81 77
          78 82 83 79 80 84 85 81 82 86 87 83
          84 88 89 85 86 90 91 87 88 92 93 89
          90 94 95 91 92 96 97 93 94 98 99 95
          96 100 101 97 98 102 103 99 100 104 105 101
          102 106 107 103 104 108 109 105 106 110 111 107
          108 112 113 109 110 114 115 111 112 116 117 113
          114 118 119 115 116 120 121 117 118 122 123 119
          120 124 125 121 122 126 127 123 124 128 129 125
          126 130 131 127 128 132 133 129 130 134 135 131
          132 136 137 133 134 138 139 135 136 140 141 137
          138 142 143 139 140 144 145 141 142 146 147 143
          144 148 149 145 146 150 151 147 148 152 153 149
          150 154 155 151 152 156 157 153 154 158 159 155
          156 160 161 157 158 162 163 159 160 164 165 161
          162 166 167 163 164 168 169 165 166 170 171 167
          168 172 173 169 170 174 175 171 172 176 177 173
          174 178 179 175 176 180 181 177 178 182 183 179
          180 184 185 181 182 186 187 183 184 188 189 185
          186 190 191 187 188 192 193 189 190 194 195 191
          192 196 197 193 194 198 199 195 196 200 201 197
          198 202 203 199 200 204 205 201 202 206 207 203
          204 208 209 205 206 210 211 207 208 212 213 209
          210 214 215 211 212 216 217 213 214 218 219 215
          216 220 221 217 218 222 223 219 220 224 225 221
          222 226 227 223 224 228 229 225 226 230 231 227
          228 232 233 229 230 234 235 231 232 236 237 233
          234 238 239 235 236 240 241 237 238 242 243 239
          240 244 245 241 242 246 247 243 244 248 249 245
          246 250 251 247 248 252 253 249 250 254 255 251
          252 256 257 253 254 258 259 255 256 260 261 257
          258 262 263 259 260 264 265 261 262 266 267 263
          264 268 269 265 266 270 271 267 268 272 273 269
          270 274 275 271 272 276 277 273 274 278 279 275
          276 280 281 277 278 282 283 279 280 284 285 281
          282 286 287 283 284 288 289 285 286 290 291 287
          288 292 293 289 290 294 295 291 292 296 297 293
          294 298 299 295 296 300 301 297 298 302 303 299
          300 304 305 301 302 306 307 303 304 308 309 305
          306 310 311 307 308 312 313 309 310 314 315 311
          312 316 317 313 314 318 319 315 316 320 321 317
          318 322 323 319 320 324 325 321 322 326 327 323
          324 328 329 325 326 330 331 327 328 332 333 329
          330 334 335 331 332 336 337 333 334 338 339 335
          336 340 341 337 338 342 343 339 340 344 345 341
          342 346 347 343 344 348 349 345 346 350 351 347
          348 352 353 349 350 354 355 351 352 356 357 353
          354 358 359 355 356 360 361 357 358 362 363 359
          360 364 365 361 362 366 367 363 364 368 369 365
          366 370 371 367 368 372 373 369 370 374 375 371
          372 376 377 373 374 378 379 375 376 380 381 377
          378 382 383 379 380 384 385 381 382 386 387 383
          384 388 389 385 386 390 391 387 388 392 393 389
          390 394 395 391 392 396 397 393 394 398 399 395
          396 400 401 397 398 402 403 399
        </DataArray>
        <DataArray type="Int32" Name="offsets" NumberOfComponents="1" format="ascii">
          8 16 24 32 40 48 56 64 72 80 88 96
          104 112 120 128 136 144 152 160 168 176 184 192
          200 208 216 224 232 240 248 256 264 272 280 288
          296 304 312 320 328 336 344 352 360 368 376 384
          392 400 408 416 424 432 440 448 456 464 472 480
          488 496 504 512 520 528 536 544 552 560 568 576
          584 592 600 608 616 624 632 640 648 656 664 672
          680 688 696 704 712 720 728 736 744 752 760 768
          776 784 792 800
        </DataArray>
        <DataArray type="UInt8" Name="types" NumberOfComponents="1" format="ascii">
          12 12 12 12 12 12 12 12 12 12 12 12
          12 12 12 12 12 12 12 12 12 12 12 12
          12 12 12 12 12 12 12 12 12 12 12 12
          12 12 12 12 12 12 12 12 12 12 12 12
          12 12 12 12 12 12 12 12 12 12 12 12
          12 12 12 12 12 12 12 12 12 12 12 12
          12 12 12 12 12 12 12 12 12 12 12 12
          12 12 12 12 12 12 12 12 12 12 12 12
          12 12 12 12
        </DataArray>
      </Cells>
    </Piece>
  </UnstructuredGrid>
</VTKFile>
