ZCORN
994.995680668119
995.477439367522
995.477439367522
995.978553086893
995.978553086893
996.487534486504
996.487534486504
996.993264491033
996.993264491033
997.485257361948
997.485257361948
997.953906763906
997.953906763906
998.390706840954
998.390706840954
998.788442954255
998.788442954255
999.141347500054
999.141347500054
999.445217105720
999.445217105720
999.697488471148
999.697488471148
999.897271158579
999.897271158579
1000.04533671042
1000.04533671042
1000.14406456531
1000.14406456531
1000.19734632041
1000.19734632041
1000.21045092643
1000.21045092643
1000.18985437499
1000.18985437499
1000.14303832213
1000.14303832213
1000.07826286503
1000.07826286503
1000.00431933188
1000.00431933188
999.930269442452
999.930269442452
999.865177535332
999.865177535332
999.817842730787
999.817842730787
999.796537899366
999.796537899366
999.808762137321
999.808762137321
999.861013113850
999.861013113850
999.958585160856
999.958585160856
1000.10539833533
1000.10539833533
1000.30386291360
1000.30386291360
1000.55478289428
1000.55478289428
1000.85730111520
1000.85730111520
1001.20888755183
1001.20888755183
1001.60537128777
1001.60537128777
1002.04101555694
1002.04101555694
1002.50863418032
1002.50863418032
1002.99974668317
1002.99974668317
1003.50476840772
1003.50476840772
1004.01323105564
1004.01323105564
1004.51402832500
1004.51402832500
1004.99568066812
995.284522508286
995.742904324137
995.742904324137
996.214104531697
996.214104531697
996.687372361175
996.687372361175
997.152468123872
997.152468123872
997.599906631149
997.599906631149
998.021178623961
998.021178623961
998.408944835407
998.408944835407
998.757198003154
998.757198003154
999.061388957791
999.061388957791
999.318513816973
999.318513816973
999.527160291389
999.527160291389
999.687512132882
999.687512132882
999.801311802150
999.801311802150
999.871782477574
999.871782477574
999.903511541862
999.903511541862
999.902298644503
999.902298644503
999.874972321562
999.874972321562
999.829179938396
999.829179938396
999.773156386022
999.773156386022
999.715477491714
999.715477491714
999.664804485837
999.664804485837
999.629626090528
999.629626090528
999.618004856116
999.618004856116
999.637334266527
999.637334266527
999.694112868120
999.694112868120
999.793741253795
999.793741253795
999.940347166402
999.940347166402
1000.13664328643
1000.13664328643
1000.38382145586
1000.38382145586
1000.68148618303
1000.68148618303
1001.02762929496
1001.02762929496
1001.41864657753
1001.41864657753
1001.84939619604
1001.84939619604
1002.31329764467
1002.31329764467
1002.80246895887
1002.80246895887
1003.30789896510
1003.30789896510
1003.81965046115
1003.81965046115
1004.32708943938
1004.32708943938
1004.81913480400
1004.81913480400
1005.28452250829
995.284522508286
995.742904324137
995.742904324137
996.214104531697
996.214104531697
996.687372361175
996.687372361175
997.152468123872
997.152468123872
997.599906631149
997.599906631149
998.021178623961
998.021178623961
998.408944835407
998.408944835407
998.757198003154
998.757198003154
999.061388957791
999.061388957791
999.318513816973
999.318513816973
999.527160291389
999.527160291389
999.687512132882
999.687512132882
999.801311802150
999.801311802150
999.871782477574
999.871782477574
999.903511541862
999.903511541862
999.902298644503
999.902298644503
999.874972321562
999.874972321562
999.829179938396
999.829179938396
999.773156386022
999.773156386022
999.715477491714
999.715477491714
999.664804485837
999.664804485837
999.629626090528
999.629626090528
999.618004856116
999.618004856116
999.637334266527
999.637334266527
999.694112868120
999.694112868120
999.793741253795
999.793741253795
999.940347166402
999.940347166402
1000.13664328643
1000.13664328643
1000.38382145586
1000.38382145586
1000.68148618303
1000.68148618303
1001.02762929496
1001.02762929496
1001.41864657753
1001.41864657753
1001.84939619604
1001.84939619604
1002.31329764467
1002.31329764467
1002.80246895887
1002.80246895887
1003.30789896510
1003.30789896510
1003.81965046115
1003.81965046115
1004.32708943938
1004.32708943938
1004.81913480400
1004.81913480400
1005.28452250829
995.574953877543
996.008328944776
996.008328944776
996.447986768665
996.447986768665
996.883953257586
996.883953257586
997.306907205643
997.306907205643
997.708401095532
997.708401095532
998.081056977171
998.081056977171
998.418732673662
998.418732673662
998.716654317394
998.716654317394
998.971512068115
998.971512068115
999.181516790688
999.181516790688
999.346416449952
999.346416449952
999.467471989521
999.467471989521
999.547393475468
999.547393475468
999.590238279479
999.590238279479
999.601274024903
999.601274024903
999.586809899416
999.586809899416
999.554000728299
999.554000728299
999.510628882827
999.510628882827
999.464869652345
999.464869652345
999.425046122457
999.425046122457
999.399379865197
999.399379865197
999.395743853561
999.395743853561
999.421423959705
999.421423959705
999.482895184756
999.482895184756
999.585618403737
999.585618403737
999.733862900585
999.733862900585
999.930559328147
999.930559328147
1000.17718697219
1000.17718697219
1000.47369834554
1000.47369834554
1000.81848320931
1000.81848320931
1001.20837313640
1001.20837313640
1001.63868672089
1001.63868672089
1002.10331452272
1002.10331452272
1002.59484184276
1002.59484184276
1003.10470647583
1003.10470647583
1003.62338771018
1003.62338771018
1004.14062205441
1004.14062205441
1004.64564049495
1004.64564049495
1005.12742153768
1005.12742153768
1005.57495387754
995.574953877543
996.008328944776
996.008328944776
996.447986768665
996.447986768665
996.883953257586
996.883953257586
997.306907205643
997.306907205643
997.708401095532
997.708401095532
998.081056977171
998.081056977171
998.418732673662
998.418732673662
998.716654317394
998.716654317394
998.971512068115
998.971512068115
999.181516790688
999.181516790688
999.346416449952
999.346416449952
999.467471989521
999.467471989521
999.547393475468
999.547393475468
999.590238279479
999.590238279479
999.601274024903
999.601274024903
999.586809899416
999.586809899416
999.554000728299
999.554000728299
999.510628882827
999.510628882827
999.464869652345
999.464869652345
999.425046122457
999.425046122457
999.399379865197
999.399379865197
999.395743853561
999.395743853561
999.421423959705
999.421423959705
999.482895184756
999.482895184756
999.585618403737
999.585618403737
999.733862900585
999.733862900585
999.930559328147
999.930559328147
1000.17718697219
1000.17718697219
1000.47369834554
1000.47369834554
1000.81848320931
1000.81848320931
1001.20837313640
1001.20837313640
1001.63868672089
1001.63868672089
1002.10331452272
1002.10331452272
1002.59484184276
1002.59484184276
1003.10470647583
1003.10470647583
1003.62338771018
1003.62338771018
1004.14062205441
1004.14062205441
1004.64564049495
1004.64564049495
1005.12742153768
1005.12742153768
1005.57495387754
995.866986186584
996.276185595192
996.276185595192
996.685072240756
996.685072240756
997.084429720188
997.084429720188
997.465838262903
997.465838262903
997.821873337359
997.821873337359
998.146276340378
998.146276340378
998.434093241077
998.434093241077
998.681777860867
998.681777860867
998.887257361755
998.887257361755
999.049958464992
999.049958464992
999.170793907513
999.170793907513
999.252109640194
999.252109640194
999.297594255039
999.297594255039
999.312153073792
999.312153073792
999.301750214633
999.301750214633
999.273222754835
999.273222754835
999.234071805642
999.234071805642
999.192235893953
999.192235893953
999.155852489326
999.155852489326
999.133013813416
999.133013813416
999.131523214782
999.131523214782
999.158658381470
999.158658381470
999.220947497103
999.220947497103
999.323964127496
999.323964127496
999.472146161910
999.472146161910
999.668643537378
999.668643537378
999.915198760732
999.915198760732
1000.21206342872
1000.21206342872
1000.55795305190
1000.55795305190
1000.95004153501
1000.95004153501
1001.38399567884
1001.38399567884
1001.85404907022
1001.85404907022
1002.35311374315
1002.35311374315
1002.87292704845
1002.87292704845
1003.40423028610
1003.40423028610
1003.93697485477
1003.93697485477
1004.46055097707
1004.46055097707
1004.96403348382
1004.96403348382
1005.43643870070
1005.43643870070
1005.86698618658
995.866986186584
996.276185595192
996.276185595192
996.685072240756
996.685072240756
997.084429720188
997.084429720188
997.465838262903
997.465838262903
997.821873337359
997.821873337359
998.146276340378
998.146276340378
998.434093241077
998.434093241077
998.681777860867
998.681777860867
998.887257361755
998.887257361755
999.049958464992
999.049958464992
999.170793907513
999.170793907513
999.252109640194
999.252109640194
999.297594255039
999.297594255039
999.312153073792
999.312153073792
999.301750214633
999.301750214633
999.273222754835
999.273222754835
999.234071805642
999.234071805642
999.192235893953
999.192235893953
999.155852489326
999.155852489326
999.133013813416
999.133013813416
999.131523214782
999.131523214782
999.158658381470
999.158658381470
999.220947497103
999.220947497103
999.323964127496
999.323964127496
999.472146161910
999.472146161910
999.668643537378
999.668643537378
999.915198760732
999.915198760732
1000.21206342872
1000.21206342872
1000.55795305190
1000.55795305190
1000.95004153501
1000.95004153501
1001.38399567884
1001.38399567884
1001.85404907022
1001.85404907022
1002.35311374315
1002.35311374315
1002.87292704845
1002.87292704845
1003.40423028610
1003.40423028610
1003.93697485477
1003.93697485477
1004.46055097707
1004.46055097707
1004.96403348382
1004.96403348382
1005.43643870070
1005.43643870070
1005.86698618658
996.159247280050
996.546618468011
996.546618468011
996.927017938084
996.927017938084
997.291930735986
997.291930735986
997.633785233505
997.633785233505
997.946130850965
997.946130850965
998.223784764616
998.223784764616
998.462944061306
998.462944061306
998.661260674143
998.661260674143
998.817877369307
998.817877369307
998.933424032494
998.933424032494
999.009974499449
999.009974499449
999.050965164118
999.050965164118
999.061077555513
999.061077555513
999.046087976913
999.046087976913
999.012688126105
999.012688126105
998.968281342619
998.968281342619
998.920759739350
998.920759739350
998.878267956481
998.878267956481
998.848959613293
998.848959613293
998.840752719950
998.840752719950
998.861090341963
998.861090341963
998.916712684141
998.916712684141
999.013446481305
999.013446481305
999.156017156894
999.156017156894
999.347888648304
999.347888648304
999.591135113140
999.591135113140
999.886347940504
999.886347940504
1000.23258061544
1000.23258061544
1000.62733304434
1000.62733304434
1001.06657596751
1001.06657596751
1001.54481508690
1001.54481508690
1002.05519354629
1002.05519354629
1002.58963044268
1002.58963044268
1003.13899214533
1003.13899214533
1003.69329237463
1003.69329237463
1004.24191626698
1004.24191626698
1004.77386304336
1004.77386304336
1005.27800142129
1005.27800142129
1005.74333157673
1005.74333157673
1006.15924728005
996.159247280050
996.546618468011
996.546618468011
996.927017938084
996.927017938084
997.291930735986
997.291930735986
997.633785233505
997.633785233505
997.946130850965
997.946130850965
998.223784764616
998.223784764616
998.462944061306
998.462944061306
998.661260674143
998.661260674143
998.817877369307
998.817877369307
998.933424032494
998.933424032494
999.009974499449
999.009974499449
999.050965164118
999.050965164118
999.061077555513
999.061077555513
999.046087976913
999.046087976913
999.012688126105
999.012688126105
998.968281342619
998.968281342619
998.920759739350
998.920759739350
998.878267956481
998.878267956481
998.848959613293
998.848959613293
998.840752719950
998.840752719950
998.861090341963
998.861090341963
998.916712684141
998.916712684141
999.013446481305
999.013446481305
999.156017156894
999.156017156894
999.347888648304
999.347888648304
999.591135113140
999.591135113140
999.886347940504
999.886347940504
1000.23258061544
1000.23258061544
1000.62733304434
1000.62733304434
1001.06657596751
1001.06657596751
1001.54481508690
1001.54481508690
1002.05519354629
1002.05519354629
1002.58963044268
1002.58963044268
1003.13899214533
1003.13899214533
1003.69329237463
1003.69329237463
1004.24191626698
1004.24191626698
1004.77386304336
1004.77386304336
1005.27800142129
1005.27800142129
1005.74333157673
1005.74333157673
1006.15924728005
996.448680494057
996.816909635548
996.816909635548
997.171511593561
997.171511593561
997.504606634178
997.504606634178
997.809406587967
997.809406587967
998.080373281097
998.080373281097
998.313342776262
998.313342776262
998.505612438994
998.505612438994
998.655988780806
998.655988780806
998.764795016456
998.764795016456
998.833838283825
998.833838283825
998.866337486601
998.866337486601
998.866813707052
998.866813707052
998.840946074265
998.840946074265
998.795396839125
998.795396839125
998.737610179587
998.737610179587
998.675589919345
998.675589919345
998.617661873548
998.617661873548
998.572226923531
998.572226923531
998.547511159119
998.547511159119
998.551319505943
998.551319505943
998.590799174426
998.590799174426
998.672219028664
998.672219028664
998.800770583113
998.800770583113
998.980395802432
998.980395802432
999.213646218173
999.213646218173
999.501577101494
999.501577101494
999.843679562815
999.843679562815
1000.23785250878
1000.23785250878
1000.68041539719
1000.68041539719
1001.16616171617
1001.16616171617
1001.68845209975
1001.68845209975
1002.23934500336
1002.23934500336
1002.80976192393
1002.80976192393
1003.38968328312
1003.38968328312
1003.96837032114
1003.96837032114
1004.53460769026
1004.53460769026
1005.07696090916
1005.07696090916
1005.58404245424
1005.58404245424
1006.04478003091
1006.04478003091
1006.44868049406
996.448680494057
996.816909635548
996.816909635548
997.171511593561
997.171511593561
997.504606634178
997.504606634178
997.809406587967
997.809406587967
998.080373281097
998.080373281097
998.313342776262
998.313342776262
998.505612438994
998.505612438994
998.655988780806
998.655988780806
998.764795016456
998.764795016456
998.833838283825
998.833838283825
998.866337486601
998.866337486601
998.866813707052
998.866813707052
998.840946074265
998.840946074265
998.795396839125
998.795396839125
998.737610179587
998.737610179587
998.675589919345
998.675589919345
998.617661873548
998.617661873548
998.572226923531
998.572226923531
998.547511159119
998.547511159119
998.551319505943
998.551319505943
998.590799174426
998.590799174426
998.672219028664
998.672219028664
998.800770583113
998.800770583113
998.980395802432
998.980395802432
999.213646218173
999.213646218173
999.501577101494
999.501577101494
999.843679562815
999.843679562815
1000.23785250878
1000.23785250878
1000.68041539719
1000.68041539719
1001.16616171617
1001.16616171617
1001.68845209975
1001.68845209975
1002.23934500336
1002.23934500336
1002.80976192393
1002.80976192393
1003.38968328312
1003.38968328312
1003.96837032114
1003.96837032114
1004.53460769026
1004.53460769026
1005.07696090916
1005.07696090916
1005.58404245424
1005.58404245424
1006.04478003091
1006.04478003091
1006.44868049406
996.730553002969
997.081466466738
997.081466466738
997.412238479832
997.412238479832
997.715576080662
997.715576080662
997.985423826726
997.985423826726
998.217104183543
998.217104183543
998.407420573794
998.407420573794
998.554720624010
998.554720624010
998.658918146810
998.658918146810
998.721473432736
998.721473432736
998.745332471547
998.745332471547
998.734826752598
998.734826752598
998.695536282054
998.695536282054
998.634119376913
998.634119376913
998.558113629126
998.558113629126
998.475713157069
998.475713157069
998.395527858189
998.395527858189
998.326330831172
998.326330831172
998.276800437070
998.276800437070
998.255263609135
998.255263609135
998.269446997031
998.269446997031
998.326242343235
998.326242343235
998.431492142393
998.431492142393
998.589801136629
998.589801136629
998.804378563674
998.804378563674
999.076915315727
999.076915315727
999.407499303962
999.407499303962
999.794571377799
999.794571377799
1000.23492314278
1000.23492314278
1000.72373698092
1000.72373698092
1001.25466752845
1001.25466752845
1001.81996283375
1001.81996283375
1002.41062242836
1002.41062242836
1003.01658862128
1003.01658862128
1003.62696649312
1003.62696649312
1004.23026734366
1004.23026734366
1004.81466975141
1004.81466975141
1005.36829195154
1005.36829195154
1005.87946894070
1005.87946894070
1006.33702758089
1006.33702758089
1006.73055300297
996.730553002969
997.081466466738
997.081466466738
997.412238479832
997.412238479832
997.715576080662
997.715576080662
997.985423826726
997.985423826726
998.217104183543
998.217104183543
998.407420573794
998.407420573794
998.554720624010
998.554720624010
998.658918146810
998.658918146810
998.721473432736
998.721473432736
998.745332471547
998.745332471547
998.734826752598
998.734826752598
998.695536282054
998.695536282054
998.634119376913
998.634119376913
998.558113629126
998.558113629126
998.475713157069
998.475713157069
998.395527858189
998.395527858189
998.326330831172
998.326330831172
998.276800437070
998.276800437070
998.255263609135
998.255263609135
998.269446997031
998.269446997031
998.326242343235
998.326242343235
998.431492142393
998.431492142393
998.589801136629
998.589801136629
998.804378563674
998.804378563674
999.076915315727
999.076915315727
999.407499303962
999.407499303962
999.794571377799
999.794571377799
1000.23492314278
1000.23492314278
1000.72373698092
1000.72373698092
1001.25466752845
1001.25466752845
1001.81996283375
1001.81996283375
1002.41062242836
1002.41062242836
1003.01658862128
1003.01658862128
1003.62696649312
1003.62696649312
1004.23026734366
1004.23026734366
1004.81466975141
1004.81466975141
1005.36829195154
1005.36829195154
1005.87946894070
1005.87946894070
1006.33702758089
1006.33702758089
1006.73055300297
996.998777711358
997.332337870707
997.332337870707
997.639579292821
997.639579292821
997.913788417354
997.913788417354
998.149627041562
998.149627041562
998.343255048415
998.343255048415
998.492412835739
998.492412835739
998.596461491465
998.596461491465
998.656379821089
998.656379821089
998.674718415841
998.674718415841
998.655512027167
998.655512027167
998.604152558169
998.604152558169
998.527225969926
998.527225969926
998.432317305560
998.432317305560
998.327788835289
998.327788835289
998.222537001575
998.222537001575
998.125734378230
998.125734378230
998.046563237618
998.046563237618
997.993947536570
997.993947536570
997.976290178834
997.976290178834
998.001222288642
998.001222288642
998.075370939267
998.075370939267
998.204151329405
998.204151329405
998.391588799937
998.391588799937
998.640175348837
998.640175348837
998.950764450854
998.950764450854
999.322507042017
999.322507042017
999.752830510344
999.752830510344
1000.23746146850
1000.23746146850
1000.77049199781
1000.77049199781
1001.34448797283
1001.34448797283
1001.95063702818
1001.95063702818
1002.57893274049
1002.57893274049
1003.21839069263
1003.21839069263
1003.85729128696
1003.85729128696
1004.48344349916
1004.48344349916
1005.08446323137
1005.08446323137
1005.64805954509
1005.64805954509
1006.16232184120
1006.16232184120
1006.61600101119
1006.61600101119
1006.99877771136
996.998777711358
997.332337870707
997.332337870707
997.639579292821
997.639579292821
997.913788417354
997.913788417354
998.149627041562
998.149627041562
998.343255048415
998.343255048415
998.492412835739
998.492412835739
998.596461491465
998.596461491465
998.656379821089
998.656379821089
998.674718415841
998.674718415841
998.655512027167
998.655512027167
998.604152558169
998.604152558169
998.527225969926
998.527225969926
998.432317305560
998.432317305560
998.327788835289
998.327788835289
998.222537001575
998.222537001575
998.125734378230
998.125734378230
998.046563237618
998.046563237618
997.993947536570
997.993947536570
997.976290178834
997.976290178834
998.001222288642
998.001222288642
998.075370939267
998.075370939267
998.204151329405
998.204151329405
998.391588799937
998.391588799937
998.640175348837
998.640175348837
998.950764450854
998.950764450854
999.322507042017
999.322507042017
999.752830510344
999.752830510344
1000.23746146850
1000.23746146850
1000.77049199781
1000.77049199781
1001.34448797283
1001.34448797283
1001.95063702818
1001.95063702818
1002.57893274049
1002.57893274049
1003.21839069263
1003.21839069263
1003.85729128696
1003.85729128696
1004.48344349916
1004.48344349916
1005.08446323137
1005.08446323137
1005.64805954509
1005.64805954509
1006.16232184120
1006.16232184120
1006.61600101119
1006.61600101119
1006.99877771136
997.246498472384
997.560175042529
997.560175042529
997.841922768121
997.841922768121
998.085655828230
998.085655828230
998.286786441964
998.286786441964
998.442329118698
998.442329118698
998.550962043485
998.550962043485
998.613044160866
998.613044160866
998.630587631789
998.630587631789
998.607186457141
998.607186457141
998.547903160014
998.547903160014
998.459116470008
998.459116470008
998.348333930593
998.348333930593
998.223974230773
998.223974230773
998.095124822999
998.095124822999
997.971281011933
997.971281011933
997.862073167572
997.862073167572
997.776989019992
997.776989019992
997.725098123879
997.725098123879
997.714785535879
997.714785535879
997.753501527616
997.753501527616
997.847533767444
997.847533767444
998.001807854105
998.001807854105
998.219721389061
998.219721389061
998.503015948435
998.503015948435
998.851690380571
998.851690380571
999.263957834271
999.263957834271
999.736247840943
999.736247840943
1000.26325365780
1000.26325365780
1000.83802395651
1000.83802395651
1001.45209683999
1001.45209683999
1002.09567311634
1002.09567311634
1002.75782477982
1002.75782477982
1003.42673376742
1003.42673376742
1004.08995529925
1004.08995529925
1004.73469948880
1004.73469948880
1005.34812444203
1005.34812444203
1005.91763376272
1005.91763376272
1006.43117125390
1006.43117125390
1006.87750565415
1006.87750565415
1007.24649847238
997.246498472384
997.560175042529
997.560175042529
997.841922768121
997.841922768121
998.085655828230
998.085655828230
998.286786441964
998.286786441964
998.442329118698
998.442329118698
998.550962043485
998.550962043485
998.613044160866
998.613044160866
998.630587631789
998.630587631789
998.607186457141
998.607186457141
998.547903160014
998.547903160014
998.459116470008
998.459116470008
998.348333930593
998.348333930593
998.223974230773
998.223974230773
998.095124822999
998.095124822999
997.971281011933
997.971281011933
997.862073167572
997.862073167572
997.776989019992
997.776989019992
997.725098123879
997.725098123879
997.714785535879
997.714785535879
997.753501527616
997.753501527616
997.847533767444
997.847533767444
998.001807854105
998.001807854105
998.219721389061
998.219721389061
998.503015948435
998.503015948435
998.851690380571
998.851690380571
999.263957834271
999.263957834271
999.736247840943
999.736247840943
1000.26325365780
1000.26325365780
1000.83802395651
1000.83802395651
1001.45209683999
1001.45209683999
1002.09567311634
1002.09567311634
1002.75782477982
1002.75782477982
1003.42673376742
1003.42673376742
1004.08995529925
1004.08995529925
1004.73469948880
1004.73469948880
1005.34812444203
1005.34812444203
1005.91763376272
1005.91763376272
1006.43117125390
1006.43117125390
1006.87750565415
1006.87750565415
1007.24649847238
997.466842562826
997.755475126157
997.755475126157
998.007369908712
998.007369908712
998.217176168096
998.217176168096
998.381141513846
998.381141513846
998.497195587580
998.497195587580
998.564988914812
998.564988914812
998.585886046513
998.585886046513
998.562913254664
998.562913254664
998.500662185006
998.500662185006
998.405151973985
998.405151973985
998.283653378048
998.283653378048
998.144479416355
998.144479416355
997.996747868951
997.996747868951
997.850121680743
997.850121680743
997.714533879724
997.714533879724
997.599904011900
997.599904011900
997.515853315559
997.515853315559
997.471425898387
997.471425898387
997.474823041410
997.474823041410
997.533157437174
997.533157437174
997.652233683816
997.652233683816
997.836360713513
997.836360713513
998.088201049195
998.088201049195
998.408660876553
998.408660876553
998.796823911689
998.796823911689
999.249930962944
999.249930962944
999.763405955297
999.763405955297
1000.33092803492
1000.33092803492
1000.94454822864
1000.94454822864
1001.59484802601
1001.59484802601
1002.27113620830
1002.27113620830
1002.96167929406
1002.96167929406
1003.65396012924
1003.65396012924
1004.33495844150
1004.33495844150
1004.99144662101
1004.99144662101
1005.61029359770
1005.61029359770
1006.17876946715
1006.17876946715
1006.68484347939
1006.68484347939
1007.11746814862
1007.11746814862
1007.46684256283
997.466842562826
997.755475126157
997.755475126157
998.007369908712
998.007369908712
998.217176168096
998.217176168096
998.381141513846
998.381141513846
998.497195587580
998.497195587580
998.564988914812
998.564988914812
998.585886046513
998.585886046513
998.562913254664
998.562913254664
998.500662185006
998.500662185006
998.405151973985
998.405151973985
998.283653378048
998.283653378048
998.144479416355
998.144479416355
997.996747868951
997.996747868951
997.850121680743
997.850121680743
997.714533879724
997.714533879724
997.599904011900
997.599904011900
997.515853315559
997.515853315559
997.471425898387
997.471425898387
997.474823041410
997.474823041410
997.533157437174
997.533157437174
997.652233683816
997.652233683816
997.836360713513
997.836360713513
998.088201049195
998.088201049195
998.408660876553
998.408660876553
998.796823911689
998.796823911689
999.249930962944
999.249930962944
999.763405955297
999.763405955297
1000.33092803492
1000.33092803492
1000.94454822864
1000.94454822864
1001.59484802601
1001.59484802601
1002.27113620830
1002.27113620830
1002.96167929406
1002.96167929406
1003.65396012924
1003.65396012924
1004.33495844150
1004.33495844150
1004.99144662101
1004.99144662101
1005.61029359770
1005.61029359770
1006.17876946715
1006.17876946715
1006.68484347939
1006.68484347939
1007.11746814862
1007.11746814862
1007.46684256283
997.653715049178
997.909896838695
997.909896838695
998.125538472377
998.125538472377
998.296181880671
998.296181880671
998.419038992483
998.419038992483
998.493051670580
998.493051670580
998.518905639164
998.518905639164
998.498998135406
998.498998135406
998.437360176834
998.437360176834
998.339535473916
998.339535473916
998.212419104010
998.212419104010
998.064060072091
998.064060072091
997.903432790397
997.903432790397
997.740183290912
997.740183290912
997.584356622022
997.584356622022
997.446112358090
997.446112358090
997.335435456057
997.335435456057
997.261849819072
997.261849819072
997.234141870329
997.234141870329
997.260101202052
997.260101202052
997.346284950822
997.346284950822
997.497811971279
997.497811971279
997.718192149849
997.718192149849
998.009195336620
998.009195336620
998.370763397917
998.370763397917
998.800967828689
998.800967828689
999.296014238592
999.296014238592
999.850293866403
999.850293866403
1000.45648111275
1000.45648111275
1001.10567493973
1001.10567493973
1001.78758089599
1001.78758089599
1002.49072951426
1002.49072951426
1003.20272592002
1003.20272592002
1003.91052470728
1003.91052470728
1004.60072350022
1004.60072350022
1005.25986814264
1005.25986814264
1005.87476215354
1005.87476215354
1006.43277296364
1006.43277296364
1006.92212750745
1006.92212750745
1007.33218998797
1007.33218998797
1007.65371504918
997.653715049178
997.909896838695
997.909896838695
998.125538472377
998.125538472377
998.296181880671
998.296181880671
998.419038992483
998.419038992483
998.493051670580
998.493051670580
998.518905639164
998.518905639164
998.498998135406
998.498998135406
998.437360176834
998.437360176834
998.339535473916
998.339535473916
998.212419104010
998.212419104010
998.064060072091
998.064060072091
997.903432790397
997.903432790397
997.740183290912
997.740183290912
997.584356622022
997.584356622022
997.446112358090
997.446112358090
997.335435456057
997.335435456057
997.261849819072
997.261849819072
997.234141870329
997.234141870329
997.260101202052
997.260101202052
997.346284950822
997.346284950822
997.497811971279
997.497811971279
997.718192149849
997.718192149849
998.009195336620
998.009195336620
998.370763397917
998.370763397917
998.800967828689
998.800967828689
999.296014238592
999.296014238592
999.850293866403
999.850293866403
1000.45648111275
1000.45648111275
1001.10567493973
1001.10567493973
1001.78758089599
1001.78758089599
1002.49072951426
1002.49072951426
1003.20272592002
1003.20272592002
1003.91052470728
1003.91052470728
1004.60072350022
1004.60072350022
1005.25986814264
1005.25986814264
1005.87476215354
1005.87476215354
1006.43277296364
1006.43277296364
1006.92212750745
1006.92212750745
1007.33218998797
1007.33218998797
1007.65371504918
997.802502008353
998.017424160862
998.017424160862
998.189158478001
998.189158478001
998.314328034071
998.314328034071
998.391264475138
998.391264475138
998.420040383287
998.420040383287
998.402455362126
998.402455362126
998.341976260920
998.341976260920
998.243633104575
998.243633104575
998.113873407347
998.113873407347
997.960378592139
997.960378592139
997.791847188794
997.791847188794
997.617750320285
997.617750320285
997.448065684524
997.448065684524
997.292996784310
997.292996784310
997.162684535227
997.162684535227
997.066918581684
997.066918581684
997.014855669793
997.014855669793
997.014752261827
997.014752261827
997.073718234599
997.073718234599
997.197497991647
997.197497991647
997.390284649112
997.390284649112
997.654572144225
997.654572144225
997.991049183220
997.991049183220
998.398537915261
998.398537915261
998.873979115982
998.873979115982
999.412464515630
999.412464515630
1000.00731574089
1000.00731574089
1000.65020818501
1000.65020818501
1001.33133700630
1001.33133700630
1002.03962140786
1002.03962140786
1002.76294239756
1002.76294239756
1003.48840839013
1003.48840839013
1004.20264231367
1004.20264231367
1004.89208333793
1004.89208333793
1005.54329596550
1005.54329596550
1006.14327902792
1006.14327902792
1006.67976711292
1006.67976711292
1007.14151711595
1007.14151711595
1007.51857295543
1007.51857295543
1007.80250200835
997.802502008353
998.017424160862
998.017424160862
998.189158478001