-- The following file was written from MATLAB using the MRST toolbox.

SPECGRID
9 9 4 1 F
/

COORD
    0.000000     0.000000  7315.000000     0.000000     0.000000  7475.000000 
  293.300000     0.000000  7315.000000   293.300000     0.000000  7475.000000 
  586.600000     0.000000  7315.000000   586.600000     0.000000  7475.000000 
  879.900000     0.000000  7315.000000   879.900000     0.000000  7475.000000 
 1173.200000     0.000000  7315.000000  1173.200000     0.000000  7475.000000 
 1466.500000     0.000000  7315.000000  1466.500000     0.000000  7475.000000 
 1759.800000     0.000000  7315.000000  1759.800000     0.000000  7475.000000 
 2053.100000     0.000000  7315.000000  2053.100000     0.000000  7475.000000 
 2346.400000     0.000000  7315.000000  2346.400000     0.000000  7475.000000 
 2639.700000     0.000000  7315.000000  2639.700000     0.000000  7475.000000 
    0.000000   293.300000  7315.000000     0.000000   293.300000  7475.000000 
  293.300000   293.300000  7315.000000   293.300000   293.300000  7475.000000 
  586.600000   293.300000  7315.000000   586.600000   293.300000  7475.000000 
  879.900000   293.300000  7315.000000   879.900000   293.300000  7475.000000 
 1173.200000   293.300000  7315.000000  1173.200000   293.300000  7475.000000 
 1466.500000   293.300000  7315.000000  1466.500000   293.300000  7475.000000 
 1759.800000   293.300000  7315.000000  1759.800000   293.300000  7475.000000 
 2053.100000   293.300000  7315.000000  2053.100000   293.300000  7475.000000 
 2346.400000   293.300000  7315.000000  2346.400000   293.300000  7475.000000 
 2639.700000   293.300000  7315.000000  2639.700000   293.300000  7475.000000 
    0.000000   586.600000  7315.000000     0.000000   586.600000  7475.000000 
  293.300000   586.600000  7315.000000   293.300000   586.600000  7475.000000 
  586.600000   586.600000  7315.000000   586.600000   586.600000  7475.000000 
  879.900000   586.600000  7315.000000   879.900000   586.600000  7475.000000 
 1173.200000   586.600000  7315.000000  1173.200000   586.600000  7475.000000 
 1466.500000   586.600000  7315.000000  1466.500000   586.600000  7475.000000 
 1759.800000   586.600000  7315.000000  1759.800000   586.600000  7475.000000 
 2053.100000   586.600000  7315.000000  2053.100000   586.600000  7475.000000 
 2346.400000   586.600000  7315.000000  2346.400000   586.600000  7475.000000 
 2639.700000   586.600000  7315.000000  2639.700000   586.600000  7475.000000 
    0.000000   879.900000  7315.000000     0.000000   879.900000  7475.000000 
  293.300000   879.900000  7315.000000   293.300000   879.900000  7475.000000 
  586.600000   879.900000  7315.000000   586.600000   879.900000  7475.000000 
  879.900000   879.900000  7315.000000   879.900000   879.900000  7475.000000 
 1173.200000   879.900000  7315.000000  1173.200000   879.900000  7475.000000 
 1466.500000   879.900000  7315.000000  1466.500000   879.900000  7475.000000 
 1759.800000   879.900000  7315.000000  1759.800000   879.900000  7475.000000 
 2053.100000   879.900000  7315.000000  2053.100000   879.900000  7475.000000 
 2346.400000   879.900000  7315.000000  2346.400000   879.900000  7475.000000 
 2639.700000   879.900000  7315.000000  2639.700000   879.900000  7475.000000 
    0.000000  1173.200000  7315.000000     0.000000  1173.200000  7475.000000 
  293.300000  1173.200000  7315.000000   293.300000  1173.200000  7475.000000 
  586.600000  1173.200000  7315.000000   586.600000  1173.200000  7475.000000 
  879.900000  1173.200000  7315.000000   879.900000  1173.200000  7475.000000 
 1173.200000  1173.200000  7315.000000  1173.200000  1173.200000  7475.000000 
 1466.500000  1173.200000  7315.000000  1466.500000  1173.200000  7475.000000 
 1759.800000  1173.200000  7315.000000  1759.800000  1173.200000  7475.000000 
 2053.100000  1173.200000  7315.000000  2053.100000  1173.200000  7475.000000 
 2346.400000  1173.200000  7315.000000  2346.400000  1173.200000  7475.000000 
 2639.700000  1173.200000  7315.000000  2639.700000  1173.200000  7475.000000 
    0.000000  1466.500000  7315.000000     0.000000  1466.500000  7475.000000 
  293.300000  1466.500000  7315.000000   293.300000  1466.500000  7475.000000 
  586.600000  1466.500000  7315.000000   586.600000  1466.500000  7475.000000 
  879.900000  1466.500000  7315.000000   879.900000  1466.500000  7475.000000 
 1173.200000  1466.500000  7315.000000  1173.200000  1466.500000  7475.000000 
 1466.500000  1466.500000  7315.000000  1466.500000  1466.500000  7475.000000 
 1759.800000  1466.500000  7315.000000  1759.800000  1466.500000  7475.000000 
 2053.100000  1466.500000  7315.000000  2053.100000  1466.500000  7475.000000 
 2346.400000  1466.500000  7315.000000  2346.400000  1466.500000  7475.000000 
 2639.700000  1466.500000  7315.000000  2639.700000  1466.500000  7475.000000 
    0.000000  1759.800000  7315.000000     0.000000  1759.800000  7475.000000 
  293.300000  1759.800000  7315.000000   293.300000  1759.800000  7475.000000 
  586.600000  1759.800000  7315.000000   586.600000  1759.800000  7475.000000 
  879.900000  1759.800000  7315.000000   879.900000  1759.800000  7475.000000 
 1173.200000  1759.800000  7315.000000  1173.200000  1759.800000  7475.000000 
 1466.500000  1759.800000  7315.000000  1466.500000  1759.800000  7475.000000 
 1759.800000  1759.800000  7315.000000  1759.800000  1759.800000  7475.000000 
 2053.100000  1759.800000  7315.000000  2053.100000  1759.800000  7475.000000 
 2346.400000  1759.800000  7315.000000  2346.400000  1759.800000  7475.000000 
 2639.700000  1759.800000  7315.000000  2639.700000  1759.800000  7475.000000 
    0.000000  2053.100000  7315.000000     0.000000  2053.100000  7475.000000 
  293.300000  2053.100000  7315.000000   293.300000  2053.100000  7475.000000 
  586.600000  2053.100000  7315.000000   586.600000  2053.100000  7475.000000 
  879.900000  2053.100000  7315.000000   879.900000  2053.100000  7475.000000 
 1173.200000  2053.100000  7315.000000  1173.200000  2053.100000  7475.000000 
 1466.500000  2053.100000  7315.000000  1466.500000  2053.100000  7475.000000 
 1759.800000  2053.100000  7315.000000  1759.800000  2053.100000  7475.000000 
 2053.100000  2053.100000  7315.000000  2053.100000  2053.100000  7475.000000 
 2346.400000  2053.100000  7315.000000  2346.400000  2053.100000  7475.000000 
 2639.700000  2053.100000  7315.000000  2639.700000  2053.100000  7475.000000 
    0.000000  2346.400000  7315.000000     0.000000  2346.400000  7475.000000 
  293.300000  2346.400000  7315.000000   293.300000  2346.400000  7475.000000 
  586.600000  2346.400000  7315.000000   586.600000  2346.400000  7475.000000 
  879.900000  2346.400000  7315.000000   879.900000  2346.400000  7475.000000 
 1173.200000  2346.400000  7315.000000  1173.200000  2346.400000  7475.000000 
 1466.500000  2346.400000  7315.000000  1466.500000  2346.400000  7475.000000 
 1759.800000  2346.400000  7315.000000  1759.800000  2346.400000  7475.000000 
 2053.100000  2346.400000  7315.000000  2053.100000  2346.400000  7475.000000 
 2346.400000  2346.400000  7315.000000  2346.400000  2346.400000  7475.000000 
 2639.700000  2346.400000  7315.000000  2639.700000  2346.400000  7475.000000 
    0.000000  2639.700000  7315.000000     0.000000  2639.700000  7475.000000 
  293.300000  2639.700000  7315.000000   293.300000  2639.700000  7475.000000 
  586.600000  2639.700000  7315.000000   586.600000  2639.700000  7475.000000 
  879.900000  2639.700000  7315.000000   879.900000  2639.700000  7475.000000 
 1173.200000  2639.700000  7315.000000  1173.200000  2639.700000  7475.000000 
 1466.500000  2639.700000  7315.000000  1466.500000  2639.700000  7475.000000 
 1759.800000  2639.700000  7315.000000  1759.800000  2639.700000  7475.000000 
 2053.100000  2639.700000  7315.000000  2053.100000  2639.700000  7475.000000 
 2346.400000  2639.700000  7315.000000  2346.400000  2639.700000  7475.000000 
 2639.700000  2639.700000  7315.000000  2639.700000  2639.700000  7475.000000 
/

ZCORN
 7315.000000  7315.000000  7315.000000  7315.000000  7315.000000  7315.000000  7315.000000  7315.000000 
 7315.000000  7315.000000  7315.000000  7315.000000  7315.000000  7315.000000  7315.000000  7315.000000 
 7315.000000  7315.000000  7315.000000  7315.000000  7315.000000  7315.000000  7315.000000  7315.000000 
 7315.000000  7315.000000  7315.000000  7315.000000  7315.000000  7315.000000  7315.000000  7315.000000 
 7315.000000  7315.000000  7315.000000  7315.000000  7315.000000  7315.000000  7315.000000  7315.000000 
 7315.000000  7315.000000  7315.000000  7315.000000  7315.000000  7315.000000  7315.000000  7315.000000 
 7315.000000  7315.000000  7315.000000  7315.000000  7315.000000  7315.000000  7315.000000  7315.000000 
 7315.000000  7315.000000  7315.000000  7315.000000  7315.000000  7315.000000  7315.000000  7315.000000 
 7315.000000  7315.000000  7315.000000  7315.000000  7315.000000  7315.000000  7315.000000  7315.000000 
 7315.000000  7315.000000  7315.000000  7315.000000  7315.000000  7315.000000  7315.000000  7315.000000 
 7315.000000  7315.000000  7315.000000  7315.000000  7315.000000  7315.000000  7315.000000  7315.000000 
 7315.000000  7315.000000  7315.000000  7315.000000  7315.000000  7315.000000  7315.000000  7315.000000 
 7315.000000  7315.000000  7315.000000  7315.000000  7315.000000  7315.000000  7315.000000  7315.000000 
 7315.000000  7315.000000  7315.000000  7315.000000  7315.000000  7315.000000  7315.000000  7315.000000 
 7315.000000  7315.000000  7315.000000  7315.000000  7315.000000  7315.000000  7315.000000  7315.000000 
 7315.000000  7315.000000  7315.000000  7315.000000  7315.000000  7315.000000  7315.000000  7315.000000 
 7315.000000  7315.000000  7315.000000  7315.000000  7315.000000  7315.000000  7315.000000  7315.000000 
 7315.000000  7315.000000  7315.000000  7315.000000  7315.000000  7315.000000  7315.000000  7315.000000 
 7315.000000  7315.000000  7315.000000  7315.000000  7315.000000  7315.000000  7315.000000  7315.000000 
 7315.000000  7315.000000  7315.000000  7315.000000  7315.000000  7315.000000  7315.000000  7315.000000 
 7315.000000  7315.000000  7315.000000  7315.000000  7315.000000  7315.000000  7315.000000  7315.000000 
 7315.000000  7315.000000  7315.000000  7315.000000  7315.000000  7315.000000  7315.000000  7315.000000 
 7315.000000  7315.000000  7315.000000  7315.000000  7315.000000  7315.000000  7315.000000  7315.000000 
 7315.000000  7315.000000  7315.000000  7315.000000  7315.000000  7315.000000  7315.000000  7315.000000 
 7315.000000  7315.000000  7315.000000  7315.000000  7315.000000  7315.000000  7315.000000  7315.000000 
 7315.000000  7315.000000  7315.000000  7315.000000  7315.000000  7315.000000  7315.000000  7315.000000 
 7315.000000  7315.000000  7315.000000  7315.000000  7315.000000  7315.000000  7315.000000  7315.000000 
 7315.000000  7315.000000  7315.000000  7315.000000  7315.000000  7315.000000  7315.000000  7315.000000 
 7315.000000  7315.000000  7315.000000  7315.000000  7315.000000  7315.000000  7315.000000  7315.000000 
 7315.000000  7315.000000  7315.000000  7315.000000  7315.000000  7315.000000  7315.000000  7315.000000 
 7315.000000  7315.000000  7315.000000  7315.000000  7315.000000  7315.000000  7315.000000  7315.000000 
 7315.000000  7315.000000  7315.000000  7315.000000  7315.000000  7315.000000  7315.000000  7315.000000 
 7315.000000  7315.000000  7315.000000  7315.000000  7315.000000  7315.000000  7315.000000  7315.000000 
 7315.000000  7315.000000  7315.000000  7315.000000  7315.000000  7315.000000  7315.000000  7315.000000 
 7315.000000  7315.000000  7315.000000  7315.000000  7315.000000  7315.000000  7315.000000  7315.000000 
 7315.000000  7315.000000  7315.000000  7315.000000  7315.000000  7315.000000  7315.000000  7315.000000 
 7315.000000  7315.000000  7315.000000  7315.000000  7315.000000  7315.000000  7315.000000  7315.000000 
 7315.000000  7315.000000  7315.000000  7315.000000  7315.000000  7315.000000  7315.000000  7315.000000 
 7315.000000  7315.000000  7315.000000  7315.000000  7315.000000  7315.000000  7315.000000  7315.000000 
 7315.000000  7315.000000  7315.000000  7315.000000  7315.000000  7315.000000  7315.000000  7315.000000 
 7315.000000  7315.000000  7315.000000  7315.000000  7345.000000  7345.000000  7345.000000  7345.000000 
 7345.000000  7345.000000  7345.000000  7345.000000  7345.000000  7345.000000  7345.000000  7345.000000 
 7345.000000  7345.000000  7345.000000  7345.000000  7345.000000  7345.000000  7345.000000  7345.000000 
 7345.000000  7345.000000  7345.000000  7345.000000  7345.000000  7345.000000  7345.000000  7345.000000 
 7345.000000  7345.000000  7345.000000  7345.000000  7345.000000  7345.000000  7345.000000  7345.000000 
 7345.000000  7345.000000  7345.000000  7345.000000  7345.000000  7345.000000  7345.000000  7345.000000 
 7345.000000  7345.000000  7345.000000  7345.000000  7345.000000  7345.000000  7345.000000  7345.000000 
 7345.000000  7345.000000  7345.000000  7345.000000  7345.000000  7345.000000  7345.000000  7345.000000 
 7345.000000  7345.000000  7345.000000  7345.000000  7345.000000  7345.000000  7345.000000  7345.000000 
 7345.000000  7345.000000  7345.000000  7345.000000  7345.000000  7345.000000  7345.000000  7345.000000 
 7345.000000  7345.000000  7345.000000  7345.000000  7345.000000  7345.000000  7345.000000  7345.000000 
 7345.000000  7345.000000  7345.000000  7345.000000  7345.000000  7345.000000  7345.000000  7345.000000 
 7345.000000  7345.000000  7345.000000  7345.000000  7345.000000  7345.000000  7345.000000  7345.000000 
 7345.000000  7345.000000  7345.000000  7345.000000  7345.000000  7345.000000  7345.000000  7345.000000 
 7345.000000  7345.000000  7345.000000  7345.000000  7345.000000  7345.000000  7345.000000  7345.000000 
 7345.000000  7345.000000  7345.000000  7345.000000  7345.000000  7345.000000  7345.000000  7345.000000 
 7345.000000  7345.000000  7345.000000  7345.000000  7345.000000  7345.000000  7345.000000  7345.000000 
 7345.000000  7345.000000  7345.000000  7345.000000  7345.000000  7345.000000  7345.000000  7345.000000 
 7345.000000  7345.000000  7345.000000  7345.000000  7345.000000  7345.000000  7345.000000  7345.000000 
 7345.000000  7345.000000  7345.000000  7345.000000  7345.000000  7345.000000  7345.000000  7345.000000 
 7345.000000  7345.000000  7345.000000  7345.000000  7345.000000  7345.000000  7345.000000  7345.000000 
 7345.000000  7345.000000  7345.000000  7345.000000  7345.000000  7345.000000  7345.000000  7345.000000 
 7345.000000  7345.000000  7345.000000  7345.000000  7345.000000  7345.000000  7345.000000  7345.000000 
 7345.000000  7345.000000  7345.000000  7345.000000  7345.000000  7345.000000  7345.000000  7345.000000 
 7345.000000  7345.000000  7345.000000  7345.000000  7345.000000  7345.000000  7345.000000  7345.000000 
 7345.000000  7345.000000  7345.000000  7345.000000  7345.000000  7345.000000  7345.000000  7345.000000 
 7345.000000  7345.000000  7345.000000  7345.000000  7345.000000  7345.000000  7345.000000  7345.000000 
 7345.000000  7345.000000  7345.000000  7345.000000  7345.000000  7345.000000  7345.000000  7345.000000 
 7345.000000  7345.000000  7345.000000  7345.000000  7345.000000  7345.000000  7345.000000  7345.000000 
 7345.000000  7345.000000  7345.000000  7345.000000  7345.000000  7345.000000  7345.000000  7345.000000 
 7345.000000  7345.000000  7345.000000  7345.000000  7345.000000  7345.000000  7345.000000  7345.000000 
 7345.000000  7345.000000  7345.000000  7345.000000  7345.000000  7345.000000  7345.000000  7345.000000 
 7345.000000  7345.000000  7345.000000  7345.000000  7345.000000  7345.000000  7345.000000  7345.000000 
 7345.000000  7345.000000  7345.000000  7345.000000  7345.000000  7345.000000  7345.000000  7345.000000 
 7345.000000  7345.000000  7345.000000  7345.000000  7345.000000  7345.000000  7345.000000  7345.000000 
 7345.000000  7345.000000  7345.000000  7345.000000  7345.000000  7345.000000  7345.000000  7345.000000 
 7345.000000  7345.000000  7345.000000  7345.000000  7345.000000  7345.000000  7345.000000  7345.000000 
 7345.000000  7345.000000  7345.000000  7345.000000  7345.000000  7345.000000  7345.000000  7345.000000 
 7345.000000  7345.000000  7345.000000  7345.000000  7345.000000  7345.000000  7345.000000  7345.000000 
 7345.000000  7345.000000  7345.000000  7345.000000  7345.000000  7345.000000  7345.000000  7345.000000 
 7345.000000  7345.000000  7345.000000  7345.000000  7345.000000  7345.000000  7345.000000  7345.000000 
 7345.000000  7345.000000  7345.000000  7345.000000  7345.000000  7345.000000  7345.000000  7345.000000 
 7345.000000  7345.000000  7345.000000  7345.000000  7345.000000  7345.000000  7345.000000  7345.000000 
 7345.000000  7345.000000  7345.000000  7345.000000  7345.000000  7345.000000  7345.000000  7345.000000 
 7345.000000  7345.000000  7345.000000  7345.000000  7345.000000  7345.000000  7345.000000  7345.000000 
 7345.000000  7345.000000  7345.000000  7345.000000  7345.000000  7345.000000  7345.000000  7345.000000 
 7345.000000  7345.000000  7345.000000  7345.000000  7345.000000  7345.000000  7345.000000  7345.000000 
 7345.000000  7345.000000  7345.000000  7345.000000  7345.000000  7345.000000  7345.000000  7345.000000 
 7345.000000  7345.000000  7345.000000  7345.000000  7345.000000  7345.000000  7345.000000  7345.000000 
 7345.000000  7345.000000  7345.000000  7345.000000  7345.000000  7345.000000  7345.000000  7345.000000 
 7345.000000  7345.000000  7345.000000  7345.000000  7345.000000  7345.000000  7345.000000  7345.000000 
 7345.000000  7345.000000  7345.000000  7345.000000  7345.000000  7345.000000  7345.000000  7345.000000 
 7345.000000  7345.000000  7345.000000  7345.000000  7345.000000  7345.000000  7345.000000  7345.000000 
 7345.000000  7345.000000  7345.000000  7345.000000  7345.000000  7345.000000  7345.000000  7345.000000 
 7345.000000  7345.000000  7345.000000  7345.000000  7345.000000  7345.000000  7345.000000  7345.000000 
 7345.000000  7345.000000  7345.000000  7345.000000  7345.000000  7345.000000  7345.000000  7345.000000 
 7345.000000  7345.000000  7345.000000  7345.000000  7345.000000  7345.000000  7345.000000  7345.000000 
 7345.000000  7345.000000  7345.000000  7345.000000  7345.000000  7345.000000  7345.000000  7345.000000 
 7345.000000  7345.000000  7345.000000  7345.000000  7345.000000  7345.000000  7345.000000  7345.000000 
 7345.000000  7345.000000  7345.000000  7345.000000  7345.000000  7345.000000  7345.000000  7345.000000 
 7345.000000  7345.000000  7345.000000  7345.000000  7345.000000  7345.000000  7345.000000  7345.000000 
 7345.000000  7345.000000  7345.000000  7345.000000  7345.000000  7345.000000  7345.000000  7345.000000 
 7345.000000  7345.000000  7345.000000  7345.000000  7345.000000  7345.000000  7345.000000  7345.000000 
 7345.000000  7345.000000  7345.000000  7345.000000  7345.000000  7345.000000  7345.000000  7345.000000 
 7345.000000  7345.000000  7345.000000  7345.000000  7345.000000  7345.000000  7345.000000  7345.000000 
 7345.000000  7345.000000  7345.000000  7345.000000  7345.000000  7345.000000  7345.000000  7345.000000 
 7345.000000  7345.000000  7345.000000  7345.000000  7345.000000  7345.000000  7345.000000  7345.000000 
 7345.000000  7345.000000  7345.000000  7345.000000  7345.000000  7345.000000  7345.000000  7345.000000 
 7345.000000  7345.000000  7345.000000  7345.000000  7345.000000  7345.000000  7345.000000  7345.000000 
 7345.000000  7345.000000  7345.000000  7345.000000  7345.000000  7345.000000  7345.000000  7345.000000 
 7345.000000  7345.000000  7345.000000  7345.000000  7345.000000  7345.000000  7345.000000  7345.000000 
 7345.000000  7345.000000  7345.000000  7345.000000  7345.000000  7345.000000  7345.000000  7345.000000 
 7345.000000  7345.000000  7345.000000  7345.000000  7345.000000  7345.000000  7345.000000  7345.000000 
 7345.000000  7345.000000  7345.000000  7345.000000  7345.000000  7345.000000  7345.000000  7345.000000 
 7345.000000  7345.000000  7345.000000  7345.000000  7345.000000  7345.000000  7345.000000  7345.000000 
 7345.000000  7345.000000  7345.000000  7345.000000  7345.000000  7345.000000  7345.000000  7345.000000 
 7345.000000  7345.000000  7345.000000  7345.000000  7345.000000  7345.000000  7345.000000  7345.000000 
 7345.000000  7345.000000  7345.000000  7345.000000  7345.000000  7345.000000  7345.000000  7345.000000 
 7345.000000  7345.000000  7345.000000  7345.000000  7345.000000  7345.000000  7345.000000  7345.000000 
 7345.000000  7345.000000  7345.000000  7345.000000  7345.000000  7345.000000  7345.000000  7345.000000 
 7345.000000  7345.000000  7345.000000  7345.000000  7345.000000  7345.000000  7345.000000  7345.000000 
 7345.000000  7345.000000  7345.000000  7345.000000  7375.000000  7375.000000  7375.000000  7375.000000 
 7375.000000  7375.000000  7375.000000  7375.000000  7375.000000  7375.000000  7375.000000  7375.000000 
 7375.000000  7375.000000  7375.000000  7375.000000  7375.000000  7375.000000  7375.000000  7375.000000 
 7375.000000  7375.000000  7375.000000  7375.000000  7375.000000  7375.000000  7375.000000  7375.000000 
 7375.000000  7375.000000  7375.000000  7375.000000  7375.000000  7375.000000  7375.000000  7375.000000 
 7375.000000  7375.000000  7375.000000  7375.000000  7375.000000  7375.000000  7375.000000  7375.000000 
 7375.000000  7375.000000  7375.000000  7375.000000  7375.000000  7375.000000  7375.000000  7375.000000 
 7375.000000  7375.000000  7375.000000  7375.000000  7375.000000  7375.000000  7375.000000  7375.000000 
 7375.000000  7375.000000  7375.000000  7375.000000  7375.000000  7375.000000  7375.000000  7375.000000 
 7375.000000  7375.000000  7375.000000  7375.000000  7375.000000  7375.000000  7375.000000  7375.000000 
 7375.000000  7375.000000  7375.000000  7375.000000  7375.000000  7375.000000  7375.000000  7375.000000 
 7375.000000  7375.000000  7375.000000  7375.000000  7375.000000  7375.000000  7375.000000  7375.000000 
 7375.000000  7375.000000  7375.000000  7375.000000  7375.000000  7375.000000  7375.000000  7375.000000 
 7375.000000  7375.000000  7375.000000  7375.000000  7375.000000  7375.000000  7375.000000  7375.000000 
 7375.000000  7375.000000  7375.000000  7375.000000  7375.000000  7375.000000  7375.000000  7375.000000 
 7375.000000  7375.000000  7375.000000  7375.000000  7375.000000  7375.000000  7375.000000  7375.000000 
 7375.000000  7375.000000  7375.000000  7375.000000  7375.000000  7375.000000  7375.000000  7375.000000 
 7375.000000  7375.000000  7375.000000  7375.000000  7375.000000  7375.000000  7375.000000  7375.000000 
 7375.000000  7375.000000  7375.000000  7375.000000  7375.000000  7375.000000  7375.000000  7375.000000 
 7375.000000  7375.000000  7375.000000  7375.000000  7375.000000  7375.000000  7375.000000  7375.000000 
 7375.000000  7375.000000  7375.000000  7375.000000  7375.000000  7375.000000  7375.000000  7375.000000 
 7375.000000  7375.000000  7375.000000  7375.000000  7375.000000  7375.000000  7375.000000  7375.000000 
 7375.000000  7375.000000  7375.000000  7375.000000  7375.000000  7375.000000  7375.000000  7375.000000 
 7375.000000  7375.000000  7375.000000  7375.000000  7375.000000  7375.000000  7375.000000  7375.000000 
 7375.000000  7375.000000  7375.000000  7375.000000  7375.000000  7375.000000  7375.000000  7375.000000 
 7375.000000  7375.000000  7375.000000  7375.000000  7375.000000  7375.000000  7375.000000  7375.000000 
 7375.000000  7375.000000  7375.000000  7375.000000  7375.000000  7375.000000  7375.000000  7375.000000 
 7375.000000  7375.000000  7375.000000  7375.000000  7375.000000  7375.000000  7375.000000  7375.000000 
 7375.000000  7375.000000  7375.000000  7375.000000  7375.000000  7375.000000  7375.000000  7375.000000 
 7375.000000  7375.000000  7375.000000  7375.000000  7375.000000  7375.000000  7375.000000  7375.000000 
 7375.000000  7375.000000  7375.000000  7375.000000  7375.000000  7375.000000  7375.000000  7375.000000 
 7375.000000  7375.000000  7375.000000  7375.000000  7375.000000  7375.000000  7375.000000  7375.000000 
 7375.000000  7375.000000  7375.000000  7375.000000  7375.000000  7375.000000  7375.000000  7375.000000 
 7375.000000  7375.000000  7375.000000  7375.000000  7375.000000  7375.000000  7375.000000  7375.000000 
 7375.000000  7375.000000  7375.000000  7375.000000  7375.000000  7375.000000  7375.000000  7375.000000 
 7375.000000  7375.000000  7375.000000  7375.000000  7375.000000  7375.000000  7375.000000  7375.000000 
 7375.000000  7375.000000  7375.000000  7375.000000  7375.000000  7375.000000  7375.000000  7375.000000 
 7375.000000  7375.000000  7375.000000  7375.000000  7375.000000  7375.000000  7375.000000  7375.000000 
 7375.000000  7375.000000  7375.000000  7375.000000  7375.000000  7375.000000  7375.000000  7375.000000 
 7375.000000  7375.000000  7375.000000  7375.000000  7375.000000  7375.000000  7375.000000  7375.000000 
 7375.000000  7375.000000  7375.000000  7375.000000  7375.000000  7375.000000  7375.000000  7375.000000 
 7375.000000  7375.000000  7375.000000  7375.000000  7375.000000  7375.000000  7375.000000  7375.000000 
 7375.000000  7375.000000  7375.000000  7375.000000  7375.000000  7375.000000  7375.000000  7375.000000 
 7375.000000  7375.000000  7375.000000  7375.000000  7375.000000  7375.000000  7375.000000  7375.000000 
 7375.000000  7375.000000  7375.000000  7375.000000  7375.000000  7375.000000  7375.000000  7375.000000 
 7375.000000  7375.000000  7375.000000  7375.000000  7375.000000  7375.000000  7375.000000  7375.000000 
 7375.000000  7375.000000  7375.000000  7375.000000  7375.000000  7375.000000  7375.000000  7375.000000 
 7375.000000  7375.000000  7375.000000  7375.000000  7375.000000  7375.000000  7375.000000  7375.000000 
 7375.000000  7375.000000  7375.000000  7375.000000  7375.000000  7375.000000  7375.000000  7375.000000 
 7375.000000  7375.000000  7375.000000  7375.000000  7375.000000  7375.000000  7375.000000  7375.000000 
 7375.000000  7375.000000  7375.000000  7375.000000  7375.000000  7375.000000  7375.000000  7375.000000 
 7375.000000  7375.000000  7375.000000  7375.000000  7375.000000  7375.000000  7375.000000  7375.000000 
 7375.000000  7375.000000  7375.000000  7375.000000  7375.000000  7375.000000  7375.000000  7375.000000 
 7375.000000  7375.000000  7375.000000  7375.000000  7375.000000  7375.000000  7375.000000  7375.000000 
 7375.000000  7375.000000  7375.000000  7375.000000  7375.000000  7375.000000  7375.000000  7375.000000 
 7375.000000  7375.000000  7375.000000  7375.000000  7375.000000  7375.000000  7375.000000  7375.000000 
 7375.000000  7375.000000  7375.000000  7375.000000  7375.000000  7375.000000  7375.000000  7375.000000 
 7375.000000  7375.000000  7375.000000  7375.000000  7375.000000  7375.000000  7375.000000  7375.000000 
 7375.000000  7375.000000  7375.000000  7375.000000  7375.000000  7375.000000  7375.000000  7375.000000 
 7375.000000  7375.000000  7375.000000  7375.000000  7375.000000  7375.000000  7375.000000  7375.000000 
 7375.000000  7375.000000  7375.000000  7375.000000  7375.000000  7375.000000  7375.000000  7375.000000 
 7375.000000  7375.000000  7375.000000  7375.000000  7375.000000  7375.000000  7375.000000  7375.000000 
 7375.000000  7375.000000  7375.000000  7375.000000  7375.000000  7375.000000  7375.000000  7375.000000 
 7375.000000  7375.000000  7375.000000  7375.000000  7375.000000  7375.000000  7375.000000  7375.000000 
 7375.000000  7375.000000  7375.000000  7375.000000  7375.000000  7375.000000  7375.000000  7375.000000 
 7375.000000  7375.000000  7375.000000  7375.000000  7375.000000  7375.000000  7375.000000  7375.000000 
 7375.000000  7375.000000  7375.000000  7375.000000  7375.000000  7375.000000  7375.000000  7375.000000 
 7375.000000  7375.000000  7375.000000  7375.000000  7375.000000  7375.000000  7375.000000  7375.000000 
 7375.000000  7375.000000  7375.000000  7375.000000  7375.000000  7375.000000  7375.000000  7375.000000 
 7375.000000  7375.000000  7375.000000  7375.000000  7375.000000  7375.000000  7375.000000  7375.000000 
 7375.000000  7375.000000  7375.000000  7375.000000  7375.000000  7375.000000  7375.000000  7375.000000 
 7375.000000  7375.000000  7375.000000  7375.000000  7375.000000  7375.000000  7375.000000  7375.000000 
 7375.000000  7375.000000  7375.000000  7375.000000  7375.000000  7375.000000  7375.000000  7375.000000 
 7375.000000  7375.000000  7375.000000  7375.000000  7375.000000  7375.000000  7375.000000  7375.000000 
 7375.000000  7375.000000  7375.000000  7375.000000  7375.000000  7375.000000  7375.000000  7375.000000 
 7375.000000  7375.000000  7375.000000  7375.000000  7375.000000  7375.000000  7375.000000  7375.000000 
 7375.000000  7375.000000  7375.000000  7375.000000  7375.000000  7375.000000  7375.000000  7375.000000 
 7375.000000  7375.000000  7375.000000  7375.000000  7375.000000  7375.000000  7375.000000  7375.000000 
 7375.000000  7375.000000  7375.000000  7375.000000  7375.000000  7375.000000  7375.000000  7375.000000 
 7375.000000  7375.000000  7375.000000  7375.000000  7375.000000  7375.000000  7375.000000  7375.000000 
 7375.000000  7375.000000  7375.000000  7375.000000  7375.000000  7375.000000  7375.000000  7375.000000 
 7375.000000  7375.000000  7375.000000  7375.000000  7425.000000  7425.000000  7425.000000  7425.000000 
 7425.000000  7425.000000  7425.000000  7425.000000  7425.000000  7425.000000  7425.000000  7425.000000 
 7425.000000  7425.000000  7425.000000  7425.000000  7425.000000  7425.000000  7425.000000  7425.000000 
 7425.000000  7425.000000  7425.000000  7425.000000  7425.000000  7425.000000  7425.000000  7425.000000 
 7425.000000  7425.000000  7425.000000  7425.000000  7425.000000  7425.000000  7425.000000  7425.000000 
 7425.000000  7425.000000  7425.000000  7425.000000  7425.000000  7425.000000  7425.000000  7425.000000 
 7425.000000  7425.000000  7425.000000  7425.000000  7425.000000  7425.000000  7425.000000  7425.000000 