ZCORN
994.996
2*995.477
2*995.979
2*996.488
2*996.993
2*997.485
2*997.954
2*998.391
2*998.788
2*999.141
2*999.445
2*999.697
2*999.897
2*1000.045
2*1000.144
2*1000.197
2*1000.210
2*1000.190
2*1000.143
2*1000.078
2*1000.004
2*999.930
2*999.865
2*999.818
2*999.797
2*999.809
2*999.861
2*999.959
2*1000.105
2*1000.304
2*1000.555
2*1000.857
2*1001.209
2*1001.605
2*1002.041
2*1002.509
2*1003.000
2*1003.505
2*1004.013
2*1004.514
1004.996  995.285
2*995.743
2*996.214
2*996.687
2*997.152
2*997.600
2*998.021
2*998.409
2*998.757
2*999.061
2*999.319
2*999.527
2*999.688
2*999.801
2*999.872
2*999.904
2*999.902
2*999.875
2*999.829
2*999.773
2*999.715
2*999.665
2*999.630
2*999.618
2*999.637
2*999.694
2*999.794
2*999.940
2*1000.137
2*1000.384
2*1000.681
2*1001.028
2*1001.419
2*1001.849
2*1002.313
2*1002.802
2*1003.308
2*1003.820
2*1004.327
2*1004.819
1005.285  995.285
2*995.743
2*996.214
2*996.687
2*997.152
2*997.600
2*998.021
2*998.409
2*998.757
2*999.061
2*999.319
2*999.527
2*999.688
2*999.801
2*999.872
2*999.904
2*999.902
2*999.875
2*999.829
2*999.773
2*999.715
2*999.665
2*999.630
2*999.618
2*999.637
2*999.694
2*999.794
2*999.940
2*1000.137
2*1000.384
2*1000.681
2*1001.028
2*1001.419
2*1001.849
2*1002.313
2*1002.802
2*1003.308
2*1003.820
2*1004.327
2*1004.819
1005.285  995.575
2*996.008
2*996.448
2*996.884
2*997.307
2*997.708
2*998.081
2*998.419
2*998.717
2*998.972
2*999.182
2*999.346
2*999.467
2*999.547
2*999.590
2*999.601
2*999.587
2*999.554
2*999.511
2*999.465
2*999.425
2*999.399
2*999.396
2*999.421
2*999.483
2*999.586
2*999.734
2*999.931
2*1000.177
2*1000.474
2*1000.818
2*1001.208
2*1001.639
2*1002.103
2*1002.595
2*1003.105
2*1003.623
2*1004.141
2*1004.646
2*1005.127
1005.575  995.575
2*996.008
2*996.448
2*996.884
2*997.307
2*997.708
2*998.081
2*998.419
2*998.717
2*998.972
2*999.182
2*999.346
2*999.467
2*999.547
2*999.590
2*999.601
2*999.587
2*999.554
2*999.511
2*999.465
2*999.425
2*999.399
2*999.396
2*999.421
2*999.483
2*999.586
2*999.734
2*999.931
2*1000.177
2*1000.474
2*1000.818
2*1001.208
2*1001.639
2*1002.103
2*1002.595
2*1003.105
2*1003.623
2*1004.141
2*1004.646
2*1005.127
1005.575  995.867
2*996.276
2*996.685
2*997.084
2*997.466
2*997.822
2*998.146
2*998.434
2*998.682
2*998.887
2*999.050
2*999.171
2*999.252
2*999.298
2*999.312
2*999.302
2*999.273
2*999.234
2*999.192
2*999.156
2*999.133
2*999.132
2*999.159
2*999.221
2*999.324
2*999.472
2*999.669
2*999.915
2*1000.212
2*1000.558
2*1000.950
2*1001.384
2*1001.854
2*1002.353
2*1002.873
2*1003.404
2*1003.937
2*1004.461
2*1004.964
2*1005.436
1005.867  995.867
2*996.276
2*996.685
2*997.084
2*997.466
2*997.822
2*998.146
2*998.434
2*998.682
2*998.887
2*999.050
2*999.171
2*999.252
2*999.298
2*999.312
2*999.302
2*999.273
2*999.234
2*999.192
2*999.156
2*999.133
2*999.132
2*999.159
2*999.221
2*999.324
2*999.472
2*999.669
2*999.915
2*1000.212
2*1000.558
2*1000.950
2*1001.384
2*1001.854
2*1002.353
2*1002.873
2*1003.404
2*1003.937
2*1004.461
2*1004.964
2*1005.436
1005.867  996.159
2*996.547
2*996.927
2*997.292
2*997.634
2*997.946
2*998.224
2*998.463
2*998.661
2*998.818
2*998.933
2*999.010
2*999.051
2*999.061
2*999.046
2*999.013
2*998.968
2*998.921
2*998.878
2*998.849
2*998.841
2*998.861
2*998.917
2*999.013
2*999.156
2*999.348
2*999.591
2*999.886
2*1000.233
2*1000.627
2*1001.067
2*1001.545
2*1002.055
2*1002.590
2*1003.139
2*1003.693
2*1004.242
2*1004.774
2*1005.278
2*1005.743
1006.159  996.159
2*996.547
2*996.927
2*997.292
2*997.634
2*997.946
2*998.224
2*998.463
2*998.661
2*998.818
2*998.933
2*999.010
2*999.051
2*999.061
2*999.046
2*999.013
2*998.968
2*998.921
2*998.878
2*998.849
2*998.841
2*998.861
2*998.917
2*999.013
2*999.156
2*999.348
2*999.591
2*999.886
2*1000.233
2*1000.627
2*1001.067
2*1001.545
2*1002.055
2*1002.590
2*1003.139
2*1003.693
2*1004.242
2*1004.774
2*1005.278
2*1005.743
1006.159  996.449
2*996.817
2*997.172
2*997.505
2*997.809
2*998.080
2*998.313
2*998.506
2*998.656
2*998.765
2*998.834
2*998.866
2*998.867
2*998.841
2*998.795
2*998.738
2*998.676
2*998.618
2*998.572
2*998.548
2*998.551
2*998.591
2*998.672
2*998.801
2*998.980
2*999.214
2*999.502
2*999.844
2*1000.238
2*1000.680
2*1001.166
2*1001.688
2*1002.239
2*1002.810
2*1003.390
2*1003.968
2*1004.535
2*1005.077
2*1005.584
2*1006.045
1006.449  996.449
2*996.817
2*997.172
2*997.505
2*997.809
2*998.080
2*998.313
2*998.506
2*998.656
2*998.765
2*998.834
2*998.866
2*998.867
2*998.841
2*998.795
2*998.738
2*998.676
2*998.618
2*998.572
2*998.548
2*998.551
2*998.591
2*998.672
2*998.801
2*998.980
2*999.214
2*999.502
2*999.844
2*1000.238
2*1000.680
2*1001.166
2*1001.688
2*1002.239
2*1002.810
2*1003.390
2*1003.968
2*1004.535
2*1005.077
2*1005.584
2*1006.045
1006.449  996.731
2*997.081
2*997.412
2*997.716
2*997.985
2*998.217
2*998.407
2*998.555
2*998.659
2*998.721
2*998.745
2*998.735
2*998.696
2*998.634
2*998.558
2*998.476
2*998.396
2*998.326
2*998.277
2*998.255
2*998.269
2*998.326
2*998.431
2*998.590
2*998.804
2*999.077
2*999.407
2*999.795
2*1000.235
2*1000.724
2*1001.255
2*1001.820
2*1002.411
2*1003.017
2*1003.627
2*1004.230
2*1004.815
2*1005.368
2*1005.879
2*1006.337
1006.731  996.731
2*997.081
2*997.412
2*997.716
2*997.985
2*998.217
2*998.407
2*998.555
2*998.659
2*998.721
2*998.745
2*998.735
2*998.696
2*998.634
2*998.558
2*998.476
2*998.396
2*998.326
2*998.277
2*998.255
2*998.269
2*998.326
2*998.431
2*998.590
2*998.804
2*999.077
2*999.407
2*999.795
2*1000.235
2*1000.724
2*1001.255
2*1001.820
2*1002.411
2*1003.017
2*1003.627
2*1004.230
2*1004.815
2*1005.368
2*1005.879
2*1006.337
1006.731  996.999
2*997.332
2*997.640
2*997.914
2*998.150
2*998.343
2*998.492
2*998.596
2*998.656
2*998.675
2*998.656
2*998.604
2*998.527
2*998.432
2*998.328
2*998.223
2*998.126
2*998.047
2*997.994
2*997.976
2*998.001
2*998.075
2*998.204
2*998.392
2*998.640
2*998.951
2*999.323
2*999.753
2*1000.237
2*1000.770
2*1001.344
2*1001.951
2*1002.579
2*1003.218
2*1003.857
2*1004.483
2*1005.084
2*1005.648
2*1006.162
2*1006.616
1006.999  996.999
2*997.332
2*997.640
2*997.914
2*998.150
2*998.343
2*998.492
2*998.596
2*998.656
2*998.675
2*998.656
2*998.604
2*998.527
2*998.432
2*998.328
2*998.223
2*998.126
2*998.047
2*997.994
2*997.976
2*998.001
2*998.075
2*998.204
2*998.392
2*998.640
2*998.951
2*999.323
2*999.753
2*1000.237
2*1000.770
2*1001.344
2*1001.951
2*1002.579
2*1003.218
2*1003.857
2*1004.483
2*1005.084
2*1005.648
2*1006.162
2*1006.616
1006.999  997.246
2*997.560
2*997.842
2*998.086
2*998.287
2*998.442
2*998.551
2*998.613
2*998.631
2*998.607
2*998.548
2*998.459
2*998.348
2*998.224
2*998.095
2*997.971
2*997.862
2*997.777
2*997.725
2*997.715
2*997.754
2*997.848
2*998.002
2*998.220
2*998.503
2*998.852
2*999.264
2*999.736
2*1000.263
2*1000.838
2*1001.452
2*1002.096
2*1002.758
2*1003.427
2*1004.090
2*1004.735
2*1005.348
2*1005.918
2*1006.431
2*1006.878
1007.246  997.246
2*997.560
2*997.842
2*998.086
2*998.287
2*998.442
2*998.551
2*998.613
2*998.631
2*998.607
2*998.548
2*998.459
2*998.348
2*998.224
2*998.095
2*997.971
2*997.862
2*997.777
2*997.725
2*997.715
2*997.754
2*997.848
2*998.002
2*998.220
2*998.503
2*998.852
2*999.264
2*999.736
2*1000.263
2*1000.838
2*1001.452
2*1002.096
2*1002.758
2*1003.427
2*1004.090
2*1004.735
2*1005.348
2*1005.918
2*1006.431
2*1006.878
1007.246  997.467
2*997.755
2*998.007
2*998.217
2*998.381
2*998.497
2*998.565
2*998.586
2*998.563
2*998.501
2*998.405
2*998.284
2*998.144
2*997.997
2*997.850
2*997.715
2*997.600
2*997.516
2*997.471
2*997.475
2*997.533
2*997.652
2*997.836
2*998.088
2*998.409
2*998.797
2*999.250
2*999.763
2*1000.331
2*1000.945
2*1001.595
2*1002.271
2*1002.962
2*1003.654
2*1004.335
2*1004.991
2*1005.610
2*1006.179
2*1006.685
2*1007.117
1007.467  997.467
2*997.755
2*998.007
2*998.217
2*998.381
2*998.497
2*998.565
2*998.586
2*998.563
2*998.501
2*998.405
2*998.284
2*998.144
2*997.997
2*997.850
2*997.715
2*997.600
2*997.516
2*997.471
2*997.475
2*997.533
2*997.652
2*997.836
2*998.088
2*998.409
2*998.797
2*999.250
2*999.763
2*1000.331
2*1000.945
2*1001.595
2*1002.271
2*1002.962
2*1003.654
2*1004.335
2*1004.991
2*1005.610
2*1006.179
2*1006.685
2*1007.117
1007.467  997.654
2*997.910
2*998.126
2*998.296
2*998.419
2*998.493
2*998.519
2*998.499
2*998.437
2*998.340
2*998.212
2*998.064
2*997.903
2*997.740
2*997.584
2*997.446
2*997.335
2*997.262
2*997.234
2*997.260
2*997.346
2*997.498
2*997.718
2*998.009
2*998.371
2*998.801
2*999.296
2*999.850
2*1000.456
2*1001.106
2*1001.788
2*1002.491
2*1003.203
2*1003.911
2*1004.601
2*1005.260
2*1005.875
2*1006.433
2*1006.922
2*1007.332
1007.654  997.654
2*997.910
2*998.126
2*998.296
2*998.419
2*998.493
2*998.519
2*998.499
2*998.437
2*998.340
2*998.212
2*998.064
2*997.903
2*997.740
2*997.584
2*997.446
2*997.335
2*997.262
2*997.234
2*997.260
2*997.346
2*997.498
2*997.718
2*998.009
2*998.371
2*998.801
2*999.296
2*999.850
2*1000.456
2*1001.106
2*1001.788
2*1002.491
2*1003.203
2*1003.911
2*1004.601
2*1005.260
2*1005.875
2*1006.433
2*1006.922
2*1007.332
1007.654  997.803
2*998.017
2*998.189
2*998.314
2*998.391
2*998.420
2*998.402
2*998.342
2*998.244
2*998.114
2*997.960
2*997.792
2*997.618
2*997.448
2*997.293
2*997.163
2*997.067
2*997.015
2*997.015
2*997.074
2*997.197
2*997.390
2*997.655
2*997.991
2*998.399
2*998.874
2*999.412
2*1000.007
2*1000.650
2*1001.331
2*1002.040
2*1002.763
2*1003.488
2*1004.203
2*1004.892
2*1005.543
2*1006.143
2*1006.680
2*1007.142
2*1007.519
1007.803  997.803
2*998.017
2*998.189
2*998.314
2*998.391
2*998.420
2*998.402
2*998.342
2*998.244
2*998.114
2*997.960
2*997.792
2*997.618
2*997.448
2*997.293
2*997.163
2*997.067
2*997.015
2*997.015
2*997.074
2*997.197
2*997.390
2*997.655
2*997.991
2*998.399
2*998.874
2*999.412
2*1000.007
2*1000.650
2*1001.331
2*1002.040
2*1002.763
2*1003.488
2*1004.203
2*1004.892
2*1005.543
2*1006.143
2*1006.680
2*1007.142
2*1007.519
1007.803  997.911
2*998.075
2*998.195
2*998.268
2*998.295
2*998.275
2*998.213
2*998.112
2*997.979
2*997.822
2*997.647
2*997.466
2*997.287
2*997.120
2*996.976
2*996.865
2*996.795
2*996.776
2*996.815
2*996.918
2*997.089
2*997.333
2*997.649
2*998.037
2*998.495
2*999.019
2*999.602
2*1000.237
2*1000.915
2*1001.624
2*1002.353
2*1003.089
2*1003.820
2*1004.531
2*1005.209
2*1005.841
2*1006.415
2*1006.918
2*1007.341
2*1007.674
1007.911  997.911
2*998.075
2*998.195
2*998.268
2*998.295
2*998.275
2*998.213
2*998.112
2*997.979
2*997.822
2*997.647
2*997.466
2*997.287
2*997.120
2*996.976
2*996.865
2*996.795
2*996.776
2*996.815
2*996.918
2*997.089
2*997.333
2*997.649
2*998.037
2*998.495
2*999.019
2*999.602
2*1000.237
2*1000.915
2*1001.624
2*1002.353
2*1003.089
2*1003.820
2*1004.531
2*1005.209
2*1005.841
2*1006.415
2*1006.918
2*1007.341
2*1007.674
1007.911  997.977
2*998.084
2*998.145
2*998.161
2*998.133
2*998.063
2*997.955
2*997.815
2*997.650
2*997.469
2*997.280
2*997.092
2*996.916
2*996.762
2*996.640
2*996.558
2*996.525
2*996.550
2*996.638
2*996.794
2*997.023
2*997.324
2*997.698
2*998.144
2*998.657
2*999.231
2*999.860
2*1000.534
2*1001.243
2*1001.976
2*1002.720
2*1003.462
2*1004.190
2*1004.888
2*1005.545
2*1006.148
2*1006.685
2*1007.145
2*1007.518
2*1007.798
1007.977  997.977
2*998.084
2*998.145
2*998.161
2*998.133
2*998.063
2*997.955
2*997.815
2*997.650
2*997.469
2*997.280
2*997.092
2*996.916
2*996.762
2*996.640
2*996.558
2*996.525
2*996.550
2*996.638
2*996.794
2*997.023
2*997.324
2*997.698
2*998.144
2*998.657
2*999.231
2*999.860
2*1000.534
2*1001.243
2*1001.976
2*1002.720
2*1003.462
2*1004.190
2*1004.888
2*1005.545
2*1006.148
2*1006.685
2*1007.145
2*1007.518
2*1007.798
1007.977  998.005
2*998.047
2*998.045
2*998.001
2*997.915
2*997.794
2*997.641
2*997.464
2*997.271
2*997.071
2*996.872
2*996.686
2*996.521
2*996.387
2*996.294
2*996.250
2*996.264
2*996.341
2*996.486
2*996.704
2*996.995
2*997.361
2*997.798
2*998.305
2*998.874
2*999.500
2*1000.174
2*1000.885
2*1001.622
2*1002.374
2*1003.128
2*1003.869
2*1004.586
2*1005.264
2*1005.891
2*1006.456
2*1006.946
2*1007.354
2*1007.670
2*1007.889
1008.005  998.005
2*998.047
2*998.045
2*998.001
2*997.915
2*997.794
2*997.641
2*997.464
2*997.271
2*997.071
2*996.872
2*996.686
2*996.521
2*996.387
2*996.294
2*996.250
2*996.264
2*996.341
2*996.486
2*996.704
2*996.995
2*997.361
2*997.798
2*998.305
2*998.874
2*999.500
2*1000.174
2*1000.885
2*1001.622
2*1002.374
2*1003.128
2*1003.869
2*1004.586
2*1005.264
2*1005.891
2*1006.456
2*1006.946
2*1007.354
2*1007.670
2*1007.889
1008.005  997.996
2*997.971
2*997.905
2*997.799
2*997.657
2*997.485
2*997.290
2*997.080
2*996.862
2*996.648
2*996.445
2*996.265
2*996.117
2*996.010
2*995.954
2*995.955
2*996.020
2*996.155
2*996.363
2*996.646
2*997.004
2*997.437
2*997.939
2*998.507
2*999.133
2*999.809
2*1000.525
2*1001.270
2*1002.032
2*1002.798
2*1003.555
2*1004.290
2*1004.989
2*1005.640
2*1006.231
2*1006.751
2*1007.190
2*1007.540
2*1007.793
2*1007.946
1007.996  997.996
2*997.971
2*997.905
2*997.799
2*997.657
2*997.485
2*997.290
2*997.080
2*996.862
2*996.648
2*996.445
2*996.265
2*996.117
2*996.010
2*995.954
2*995.955
2*996.020
2*996.155
2*996.363
2*996.646
2*997.004
2*997.437
2*997.939
2*998.507
2*999.133
2*999.809
2*1000.525
2*1001.270
2*1002.032
2*1002.798
2*1003.555
2*1004.290
2*1004.989
2*1005.640
2*1006.231
2*1006.751
2*1007.190
2*1007.540
2*1007.793
2*1007.946
1007.996  997.955
2*997.864
2*997.735
2*997.569
2*997.375
2*997.156
2*996.923
2*996.683
2*996.446
2*996.223
2*996.021
2*995.853
2*995.727
2*995.651
2*995.635
2*995.684
2*995.804
2*995.999
2*996.271
2*996.620
2*997.045
2*997.543
2*998.109
2*998.736
2*999.415
2*1000.138
2*1000.892
2*1001.666
2*1002.447
2*1003.223
2*1003.979
2*1004.702
2*1005.379
2*1005.999
2*1006.550
2*1007.022
2*1007.406
2*1007.695
2*1007.885
2*1007.972
1007.955  997.955
2*997.864
2*997.735
2*997.569
2*997.375
2*997.156
2*996.923
2*996.683
2*996.446
2*996.223
2*996.021
2*995.853
2*995.727
2*995.651
2*995.635
2*995.684
2*995.804
2*995.999
2*996.271
2*996.620
2*997.045
2*997.543
2*998.109
2*998.736
2*999.415
2*1000.138
2*1000.892
2*1001.666
2*1002.447
2*1003.223
2*1003.979
2*1004.702
2*1005.379
2*1005.999
2*1006.550
2*1007.022
2*1007.406
2*1007.695
2*1007.885
2*1007.972
1007.955  997.886
2*997.734
2*997.546
2*997.327
2*997.085
2*996.826
2*996.561
2*996.297
2*996.047
2*995.819
2*995.623
2*995.471
2*995.369
2*995.328
2*995.353
2*995.451
2*995.626
2*995.880
2*996.213
2*996.626
2*997.114
2*997.674
2*998.298
2*998.978
2*999.705
2*1000.468
2*1001.254
2*1002.052
2*1002.847
2*1003.627
2*1004.377
2*1005.084
2*1005.737
2*1006.323
2*1006.832
2*1007.255
2*1007.584
2*1007.815
2*1007.943
2*1007.966
1007.886  997.886
2*997.734
2*997.546
2*997.327
2*997.085
2*996.826
2*996.561
2*996.297
2*996.047
2*995.819
2*995.623
2*995.471
2*995.369
2*995.328
2*995.353
2*995.451
2*995.626
2*995.880
2*996.213
2*996.626
2*997.114
2*997.674
2*998.298
2*998.978
2*999.705
2*1000.468
2*1001.254
2*1002.052
2*1002.847
2*1003.627
2*1004.377
2*1005.084
2*1005.737
2*1006.323
2*1006.832
2*1007.255
2*1007.584
2*1007.815
2*1007.943
2*1007.966
1007.886  997.793
2*997.587
2*997.349
2*997.084
2*996.802
2*996.511
2*996.220
2*995.940
2*995.682
2*995.455
2*995.270
2*995.136
2*995.062
2*995.055
2*995.122
2*995.267
2*995.493
2*995.802
2*996.192
2*996.662
2*997.207
2*997.820
2*998.495
2*999.221
2*999.988
2*1000.783
2*1001.595
2*1002.409
2*1003.212
2*1003.990
2*1004.730
2*1005.419
2*1006.044
2*1006.596
2*1007.063
2*1007.439
2*1007.717
2*1007.893
2*1007.964
2*1007.930
1007.793  997.793
2*997.587
2*997.349
2*997.084
2*996.802
2*996.511
2*996.220
2*995.940
2*995.682
2*995.455
2*995.270
2*995.136
2*995.062
2*995.055
2*995.122
2*995.267
2*995.493
2*995.802
2*996.192
2*996.662
2*997.207
2*997.820
2*998.495
2*999.221
2*999.988
2*1000.783
2*1001.595
2*1002.409
2*1003.212
2*1003.990
2*1004.730
2*1005.419
2*1006.044
2*1006.596
2*1007.063
2*1007.439
2*1007.717
2*1007.893
2*1007.964
2*1007.930
1007.793  997.680
2*997.429
2*997.149
2*996.848
2*996.536
2*996.220
2*995.913
2*995.624
2*995.364
2*995.144
2*994.973
2*994.860
2*994.814
2*994.842
2*994.948
2*995.137
2*995.410
2*995.768
2*996.208
2*996.728
2*997.320
2*997.979
2*998.695
2*999.457
2*1000.254
2*1001.074
2*1001.902
2*1002.725
2*1003.530
2*1004.302
2*1005.027
2*1005.695
2*1006.292
2*1006.809
2*1007.237
2*1007.569
2*1007.800
2*1007.927
2*1007.948
2*1007.865
1007.680  997.680
2*997.429
2*997.149
2*996.848
2*996.536
2*996.220
2*995.913
2*995.624
2*995.364
2*995.144
2*994.973
2*994.860
2*994.814
2*994.842
2*994.948
2*995.137
2*995.410
2*995.768
2*996.208
2*996.728
2*997.320
2*997.979
2*998.695
2*999.457
2*1000.254
2*1001.074
2*1001.902
2*1002.725
2*1003.530
2*1004.302
2*1005.027
2*1005.695
2*1006.292
2*1006.809
2*1007.237
2*1007.569
2*1007.800
2*1007.927
2*1007.948
2*1007.865
1007.680  997.547
2*997.260
2*996.949
2*996.623
2*996.289
2*995.959
2*995.643
2*995.353
2*995.098
2*994.889
2*994.736
2*994.647
2*994.630
2*994.691
2*994.835
2*995.063
2*995.378
2*995.779
2*996.262
2*996.822
2*997.453
2*998.147
2*998.894
2*999.683
2*1000.501
2*1001.335
2*1002.172
2*1002.997
2*1003.796
2*1004.556
2*1005.264
2*1005.908
2*1006.476
2*1006.960
2*1007.351
2*1007.643
2*1007.832
2*1007.916
2*1007.895
2*1007.770
1007.547  997.547
2*997.260
2*996.949
2*996.623
2*996.289
2*995.959
2*995.643
2*995.353
2*995.098
2*994.889
2*994.736
2*994.647
2*994.630
2*994.691
2*994.835
2*995.063
2*995.378
2*995.779
2*996.262
2*996.822
2*997.453
2*998.147
2*998.894
2*999.683
2*1000.501
2*1001.335
2*1002.172
2*1002.997
2*1003.796
2*1004.556
2*1005.264
2*1005.908
2*1006.476
2*1006.960
2*1007.351
2*1007.643
2*1007.832
2*1007.916
2*1007.895
2*1007.770
1007.547  997.394
2*997.081
2*996.749
2*996.405
2*996.059
2*995.723
2*995.407
2*995.122
2*994.879
2*994.686
2*994.555
2*994.492
2*994.505
2*994.599
2*994.778
2*995.043
2*995.396
2*995.833
2*996.351
2*996.944
2*997.606
2*998.326
2*999.095
2*999.901
2*1000.730
2*1001.571
2*1002.407
2*1003.227
2*1004.015
2*1004.759
2*1005.445
2*1006.063
2*1006.601
2*1007.052
2*1007.407
2*1007.663
2*1007.815
2*1007.862
2*1007.806
2*1007.648
1007.394  997.394
2*997.081
2*996.749
2*996.405
2*996.059
2*995.723
2*995.407
2*995.122
2*994.879
2*994.686
2*994.555
2*994.492
2*994.505
2*994.599
2*994.778
2*995.043
2*995.396
2*995.833
2*996.351
2*996.944
2*997.606
2*998.326
2*999.095
2*999.901
2*1000.730
2*1001.571
2*1002.407
2*1003.227
2*1004.015
2*1004.759
2*1005.445
2*1006.063
2*1006.601
2*1007.052
2*1007.407
2*1007.663
2*1007.815
2*1007.862
2*1007.806
2*1007.648
1007.394  997.221
2*996.889
2*996.542
2*996.188
2*995.839
2*995.504
2*995.195
2*994.922
2*994.696
2*994.525
2*994.419
2*994.385
2*994.429
2*994.556
2*994.770
2*995.070
2*995.456
2*995.925
2*996.474
2*997.094
2*997.779
2*998.519
2*999.302
2*1000.117
2*1000.951
2*1001.790
2*1002.620
2*1003.427
2*1004.198
2*1004.920
2*1005.581
2*1006.170
2*1006.677
2*1007.094
2*1007.415
2*1007.636
2*1007.754
2*1007.769
2*1007.683
2*1007.498
1007.221  997.221
2*996.889
2*996.542
2*996.188
2*995.839
2*995.504
2*995.195
2*994.922
2*994.696
2*994.525
2*994.419
2*994.385
2*994.429
2*994.556
2*994.770
2*995.070
2*995.456
2*995.925
2*996.474
2*997.094
2*997.779
2*998.519
2*999.302
2*1000.117
2*1000.951
2*1001.790
2*1002.620
2*1003.427
2*1004.198
2*1004.920
2*1005.581
2*1006.170
2*1006.677
2*1007.094
2*1007.415
2*1007.636
2*1007.754
2*1007.769
2*1007.683
2*1007.498
1007.221  997.024
2*996.678
2*996.321
2*995.964
2*995.617
2*995.289
2*994.993
2*994.737
2*994.533
2*994.388
2*994.311
2*994.309
2*994.387
2*994.550
2*994.798
2*995.132
2*995.551
2*996.051
2*996.627
2*997.271
2*997.976
2*998.730
2*999.522
2*1000.341
2*1001.173
2*1002.005
2*1002.822
2*1003.612
2*1004.361
2*1005.057
2*1005.689
2*1006.246
2*1006.719
2*1007.101
2*1007.387
2*1007.574
2*1007.659
2*1007.643
2*1007.529
2*1007.321
1007.024  997.024
2*996.678
2*996.321
2*995.964
2*995.617
2*995.289
2*994.993
2*994.737
2*994.533
2*994.388
2*994.311
2*994.309
2*994.387
2*994.550
2*994.798
2*995.132
2*995.551
2*996.051
2*996.627
2*997.271
2*997.976
2*998.730
2*999.522
2*1000.341
2*1001.173
2*1002.005
2*1002.822
2*1003.612
2*1004.361
2*1005.057
2*1005.689
2*1006.246
2*1006.719
2*1007.101
2*1007.387
2*1007.574
2*1007.659
2*1007.643
2*1007.529
2*1007.321
1007.024  996.803
2*996.444
2*996.081
2*995.723
2*995.381
2*995.065
2*994.785
2*994.551
2*994.373
2*994.258
2*994.215
2*994.249
2*994.364
2*994.564
2*994.850
2*995.221
2*995.674
2*996.205
2*996.808
2*997.475
2*998.197
2*998.963
2*999.762
2*1000.582
2*1001.409
2*1002.229
2*1003.030
2*1003.798
2*1004.521
2*1005.187
2*1005.785
2*1006.306
2*1006.742
2*1007.086
2*1007.335
2*1007.485
2*1007.536
2*1007.490
2*1007.349
2*1007.117
1006.803  996.803
2*996.444
2*996.081
2*995.723
2*995.381
2*995.065
2*994.785
2*994.551
2*994.373
2*994.258
2*994.215
2*994.249
2*994.364
2*994.564
2*994.850
2*995.221
2*995.674
2*996.205
2*996.808
2*997.475
2*998.197
2*998.963
2*999.762
2*1000.582
2*1001.409
2*1002.229
2*1003.030
2*1003.798
2*1004.521
2*1005.187
2*1005.785
2*1006.306
2*1006.742
2*1007.086
2*1007.335
2*1007.485
2*1007.536
2*1007.490
2*1007.349
2*1007.117
1006.803  996.556
2*996.184
2*995.815
2*995.457
2*995.122
2*994.819
2*994.558
2*994.349
2*994.201
2*994.120
2*994.114
2*994.188
2*994.345
2*994.587
2*994.914
2*995.325
2*995.815
2*996.380
2*997.012
2*997.704
2*998.444
2*999.223
2*1000.029
2*1000.848
2*1001.668
2*1002.475
2*1003.257
2*1004.000
2*1004.693
2*1005.325
2*1005.886
2*1006.367
2*1006.761
2*1007.063
2*1007.271
2*1007.381
2*1007.395
2*1007.315
2*1007.144
2*1006.889
1006.556  996.556
2*996.184
2*995.815
2*995.457
2*995.122
2*994.819
2*994.558
2*994.349
2*994.201
2*994.120
2*994.114
2*994.188
2*994.345
2*994.587
2*994.914
2*995.325
2*995.815
2*996.380
2*997.012
2*997.704
2*998.444
2*999.223
2*1000.029
2*1000.848
2*1001.668
2*1002.475
2*1003.257
2*1004.000
2*1004.693
2*1005.325
2*1005.886
2*1006.367
2*1006.761
2*1007.063
2*1007.271
2*1007.381
2*1007.395
2*1007.315
2*1007.144
2*1006.889
1006.556  996.282
2*995.896
2*995.519
2*995.161
2*994.833
2*994.544
2*994.304
2*994.123
2*994.007
2*993.964
2*994.000
2*994.118
2*994.321
2*994.609
2*994.982
2*995.437
2*995.969
2*996.571
2*997.237
2*997.956
2*998.718
2*999.512
2*1000.325
2*1001.144
2*1001.957
2*1002.750
2*1003.511
2*1004.227
2*1004.887
2*1005.481
2*1006.000
2*1006.437
2*1006.786
2*1007.042
2*1007.203
2*1007.269
2*1007.241
2*1007.123
2*1006.919
2*1006.636
1006.282  996.282
2*995.896
2*995.519
2*995.161
2*994.833
2*994.544
2*994.304
2*994.123
2*994.007
2*993.964
2*994.000
2*994.118
2*994.321
2*994.609
2*994.982
2*995.437
2*995.969
2*996.571
2*997.237
2*997.956
2*998.718
2*999.512
2*1000.325
2*1001.144
2*1001.957
2*1002.750
2*1003.511
2*1004.227
2*1004.887
2*1005.481
2*1006.000
2*1006.437
2*1006.786
2*1007.042
2*1007.203
2*1007.269
2*1007.241
2*1007.123
2*1006.919
2*1006.636
1006.282  995.984
2*995.581
2*995.195
2*994.836
2*994.514
2*994.240
2*994.022
2*993.869
2*993.789
2*993.787
2*993.867
2*994.033
2*994.287
2*994.626
2*995.050
2*995.554
2*996.132
2*996.776
2*997.479
2*998.229
2*999.016
2*999.826
2*1000.649
2*1001.469
2*1002.275
2*1003.054
2*1003.793
2*1004.480
2*1005.105
2*1005.659
2*1006.133
2*1006.521
2*1006.820
2*1007.024
2*1007.135
2*1007.152
2*1007.078
2*1006.918
2*1006.677
2*1006.363
1005.984  995.984
2*995.581
2*995.195
2*994.836
2*994.514
2*994.240
2*994.022
2*993.869
2*993.789
2*993.787
2*993.867
2*994.033
2*994.287
2*994.626
2*995.050
2*995.554
2*996.132
2*996.776
2*997.479
2*998.229
2*999.016
2*999.826
2*1000.649
2*1001.469
2*1002.275
2*1003.054
2*1003.793
2*1004.480
2*1005.105
2*1005.659
2*1006.133
2*1006.521
2*1006.820
2*1007.024
2*1007.135
2*1007.152
2*1007.078
2*1006.918
2*1006.677
2*1006.363
1005.984  995.667
2*995.245
2*994.848
2*994.487
2*994.172
2*993.913
2*993.718
2*993.596
2*993.552
2*993.593
2*993.722
2*993.939
2*994.246
2*994.641
2*995.119
2*995.676
2*996.303
2*996.993
2*997.736
2*998.520
2*999.333
2*1000.163
2*1000.996
2*1001.818
2*1002.618
2*1003.381
2*1004.097
2*1004.754
2*1005.341
2*1005.852
2*1006.278
2*1006.615
2*1006.860
2*1007.010
2*1007.066
2*1007.030
2*1006.907
2*1006.701
2*1006.420
2*1006.072
1005.667  995.667
2*995.245
2*994.848
2*994.487
2*994.172
2*993.913
2*993.718
2*993.596
2*993.552
2*993.593
2*993.722
2*993.939
2*994.246
2*994.641
2*995.119
2*995.676
2*996.303
2*996.993
2*997.736
2*998.520
2*999.333
2*1000.163
2*1000.996
2*1001.818
2*1002.618
2*1003.381
2*1004.097
2*1004.754
2*1005.341
2*1005.852
2*1006.278
2*1006.615
2*1006.860
2*1007.010
2*1007.066
2*1007.030
2*1006.907
2*1006.701
2*1006.420
2*1006.072
1005.667  995.335
2*994.894
2*994.487
2*994.125
2*993.817
2*993.574
2*993.404
2*993.314
2*993.311
2*993.397
2*993.575
2*993.847
2*994.210
2*994.661
2*995.196
2*995.807
2*996.486
2*997.223
2*998.007
2*998.825
2*999.665
2*1000.514
2*1001.357
2*1002.181
2*1002.973
2*1003.720
2*1004.411
2*1005.035
2*1005.583
2*1006.049
2*1006.425
2*1006.708
2*1006.896
2*1006.989
2*1006.989
2*1006.899
2*1006.724
2*1006.472
2*1006.150
2*1005.767
1005.335  995.335
2*994.894
2*994.487
2*994.125
2*993.817
2*993.574
2*993.404
2*993.314
2*993.311
2*993.397
2*993.575
2*993.847
2*994.210
2*994.661
2*995.196
2*995.807
2*996.486
2*997.223
2*998.007
2*998.825
2*999.665
2*1000.514
2*1001.357
2*1002.181
2*1002.973
2*1003.720
2*1004.411
2*1005.035
2*1005.583
2*1006.049
2*1006.425
2*1006.708
2*1006.896
2*1006.989
2*1006.989
2*1006.899
2*1006.724
2*1006.472
2*1006.150
2*1005.767
1005.335  994.996
2*994.539
2*994.124
2*993.764
2*993.467
2*993.243
2*993.100
2*993.045
2*993.082
2*993.215
2*993.445
2*993.771
2*994.191
2*994.699
2*995.290
2*995.955
2*996.684
2*997.466
2*998.289
2*999.140
2*1000.004
2*1000.869
2*1001.719
2*1002.542
2*1003.323
2*1004.051
2*1004.715
2*1005.305
2*1005.812
2*1006.230
2*1006.555
2*1006.783
2*1006.915
2*1006.951
2*1006.895
2*1006.751
2*1006.526
2*1006.229
2*1005.867
2*1005.453
1004.996  996.771
2*997.266
2*997.785
2*998.317
2*998.850
2*999.373
2*999.875
2*1000.348
2*1000.782
2*1001.172
2*1001.511
2*1001.798
2*1002.030
2*1002.206
2*1002.330
2*1002.403
2*1002.431
2*1002.420
2*1002.377
2*1002.311
2*1002.229
2*1002.142
2*1002.058
2*1001.988
2*1001.939
2*1001.921
2*1001.940
2*1002.002
2*1002.112
2*1002.274
2*1002.489
2*1002.757
2*1003.076
2*1003.444
2*1003.855
2*1004.303
2*1004.779
2*1005.274
2*1005.779
2*1006.282
1006.771  997.034
2*997.525
2*998.034
2*998.549
2*999.060
2*999.555
2*1000.025
2*1000.462
2*1000.857
2*1001.207
2*1001.505
2*1001.751
2*1001.942
2*1002.081
2*1002.170
2*1002.212
2*1002.214
2*1002.183
2*1002.125
2*1002.049
2*1001.966
2*1001.883
2*1001.810
2*1001.756
2*1001.730
2*1001.739
2*1001.790
2*1001.888
2*1002.036
2*1002.239
2*1002.495
2*1002.804
2*1003.164
2*1003.569
2*1004.015
2*1004.494
2*1004.996
2*1005.512
2*1006.031
2*1006.543
1007.034  997.034
2*997.525
2*998.034
2*998.549
2*999.060
2*999.555
2*1000.025
2*1000.462
2*1000.857
2*1001.207
2*1001.505
2*1001.751
2*1001.942
2*1002.081
2*1002.170
2*1002.212
2*1002.214
2*1002.183
2*1002.125
2*1002.049
2*1001.966
2*1001.883
2*1001.810
2*1001.756
2*1001.730
2*1001.739
2*1001.790
2*1001.888
2*1002.036
2*1002.239
2*1002.495
2*1002.804
2*1003.164
2*1003.569
2*1004.015
2*1004.494
2*1004.996
2*1005.512
2*1006.031
2*1006.543
1007.034  997.343
2*997.822
2*998.312
2*998.802
2*999.281
2*999.739
2*1000.167
2*1000.558
2*1000.906
2*1001.207
2*1001.456
2*1001.654
2*1001.801
2*1001.898
2*1001.949
2*1001.960
2*1001.936
2*1001.886
2*1001.816
2*1001.737
2*1001.657
2*1001.586
2*1001.532
2*1001.504
2*1001.509
2*1001.555
2*1001.648
2*1001.791
2*1001.987
2*1002.238
2*1002.544
2*1002.900
2*1003.305
2*1003.753
2*1004.236
2*1004.746
2*1005.274
2*1005.809
2*1006.340
2*1006.855
1007.343  997.343
2*997.822
2*998.312
2*998.802
2*999.281
2*999.739
2*1000.167
2*1000.558
2*1000.906
2*1001.207
2*1001.456
2*1001.654
2*1001.801
2*1001.898
2*1001.949
2*1001.960
2*1001.936
2*1001.886
2*1001.816
2*1001.737
2*1001.657
2*1001.586
2*1001.532
2*1001.504
2*1001.509
2*1001.555
2*1001.648
2*1001.791
2*1001.987
2*1002.238
2*1002.544
2*1002.900
2*1003.305
2*1003.753
2*1004.236
2*1004.746
2*1005.274
2*1005.809
2*1006.340
2*1006.855
1007.343  997.693
2*998.153
2*998.617
2*999.072
2*999.510
2*999.922
2*1000.299
2*1000.636
2*1000.928
2*1001.172
2*1001.366
2*1001.510
2*1001.606
2*1001.658
2*1001.670
2*1001.648
2*1001.600
2*1001.533
2*1001.455
2*1001.377
2*1001.307
2*1001.254
2*1001.227
2*1001.233
2*1001.279
2*1001.372
2*1001.516
2*1001.713
2*1001.966
2*1002.273
2*1002.634
2*1003.045
2*1003.500
2*1003.993
2*1004.515
2*1005.058
2*1005.610
2*1006.162
2*1006.701
2*1007.215
1007.693  997.693
2*998.153
2*998.617
2*999.072
2*999.510
2*999.922
2*1000.299
2*1000.636
2*1000.928
2*1001.172
2*1001.366
2*1001.510
2*1001.606
2*1001.658
2*1001.670
2*1001.648
2*1001.600
2*1001.533
2*1001.455
2*1001.377
2*1001.307
2*1001.254
2*1001.227
2*1001.233
2*1001.279
2*1001.372
2*1001.516
2*1001.713
2*1001.966
2*1002.273
2*1002.634
2*1003.045
2*1003.500
2*1003.993
2*1004.515
2*1005.058
2*1005.610
2*1006.162
2*1006.701
2*1007.215
1007.693  998.073
2*998.509
2*998.938
2*999.352
2*999.742
2*1000.099
2*1000.417
2*1000.693
2*1000.922
2*1001.102
2*1001.235
2*1001.322
2*1001.365
2*1001.369
2*1001.341
2*1001.287
2*1001.215
2*1001.134
2*1001.053
2*1000.981
2*1000.927
2*1000.899
2*1000.905
2*1000.953
2*1001.048
2*1001.195
2*1001.398
2*1001.657
2*1001.972
2*1002.343
2*1002.765
2*1003.233
2*1003.742
2*1004.282
2*1004.844
2*1005.419
2*1005.995
2*1006.560
2*1007.103
2*1007.611
1008.073  998.073
2*998.509
2*998.938
2*999.352
2*999.742
2*1000.099
2*1000.417
2*1000.693
2*1000.922
2*1001.102
2*1001.235
2*1001.322
2*1001.365
2*1001.369
2*1001.341
2*1001.287
2*1001.215
2*1001.134
2*1001.053
2*1000.981
2*1000.927
2*1000.899
2*1000.905
2*1000.953
2*1001.048
2*1001.195
2*1001.398
2*1001.657
2*1001.972
2*1002.343
2*1002.765
2*1003.233
2*1003.742
2*1004.282
2*1004.844
2*1005.419
2*1005.995
2*1006.560
2*1007.103
2*1007.611
1008.073  998.466
2*998.871
2*999.260
2*999.627
2*999.962
2*1000.259
2*1000.514
2*1000.723
2*1000.885
2*1001.000
2*1001.070
2*1001.097
2*1001.086
2*1001.043
2*1000.976
2*1000.892
2*1000.800
2*1000.710
2*1000.629
2*1000.568
2*1000.534
2*1000.537
2*1000.583
2*1000.679
2*1000.828
2*1001.035
2*1001.301
2*1001.626
2*1002.008
2*1002.445
2*1002.930
2*1003.458
2*1004.020
2*1004.607
2*1005.209
2*1005.814
2*1006.410
2*1006.985
2*1007.527
2*1008.025
1008.466  998.466
2*998.871
2*999.260
2*999.627
2*999.962
2*1000.259
2*1000.514
2*1000.723
2*1000.885
2*1001.000
2*1001.070
2*1001.097
2*1001.086
2*1001.043
2*1000.976
2*1000.892
2*1000.800
2*1000.710
2*1000.629