

SPECGRID
 19 28 5 1 F /

COORDSYS
 1 5 'INCOMP  ' /

COORD   

  .000000E+00  .000000E+00  2444.62      .000000E+00  .000000E+00  2444.62    
  180.000      .000000E+00  2445.18      180.000      .000000E+00  2445.18    
  360.000      .000000E+00  2441.87      360.000      .000000E+00  2441.87    
  540.000      .000000E+00  2434.29      540.000      .000000E+00  2434.29    
  720.000      .000000E+00  2428.34      720.000      .000000E+00  2428.34    
  900.000      .000000E+00  2423.32      900.000      .000000E+00  2423.32    
  1080.00      .000000E+00  2420.25      1080.00      .000000E+00  2420.25    
  1260.00      .000000E+00  2417.69      1260.00      .000000E+00  2417.69    
  1440.00      .000000E+00  2414.49      1440.00      .000000E+00  2414.49
  1620.00      .000000E+00  2411.29      1620.00      .000000E+00  2411.29    
  1800.00      .000000E+00  2408.57      1800.00      .000000E+00  2408.57    
  1980.00      .000000E+00  2405.86      1980.00      .000000E+00  2405.86    
  2160.00      .000000E+00  2403.12      2160.00      .000000E+00  2403.12    
  2340.00      .000000E+00  2399.51      2340.00      .000000E+00  2399.51    
  2520.00      .000000E+00  2395.64      2520.00      .000000E+00  2395.64    
  2700.00      .000000E+00  2394.15      2700.00      .000000E+00  2394.15    
  2880.00      .000000E+00  2393.76      2880.00      .000000E+00  2393.76    
  3060.00      .000000E+00  2396.66      3060.00      .000000E+00  2396.66    
  3240.00      .000000E+00  2399.56      3240.00      .000000E+00  2399.56    
  3420.00      .000000E+00  2408.61      3420.00      .000000E+00  2408.61    

  .000000E+00  180.000      2447.63      .000000E+00  180.000      2447.63    
  180.000      180.000      2444.79      180.000      180.000      2444.79    
  360.000      180.000      2439.19      360.000      180.000      2439.19    
  540.000      180.000      2431.76      540.000      180.000      2431.76    
  720.000      180.000      2425.64      720.000      180.000      2425.64    
  900.000      180.000      2420.45      900.000      180.000      2420.45    
  1080.00      180.000      2416.17      1080.00      180.000      2416.17    
  1260.00      180.000      2412.46      1260.00      180.000      2412.46    
  1440.00      180.000      2409.47      1440.00      180.000      2409.47    
  1620.00      180.000      2406.47      1620.00      180.000      2406.47    
  1800.00      180.000      2404.25      1800.00      180.000      2404.25    
  1980.00      180.000      2402.38      1980.00      180.000      2402.38    
  2160.00      180.000      2400.24      2160.00      180.000      2400.24    
  2340.00      180.000      2397.35      2340.00      180.000      2397.35    
  2520.00      180.000      2394.00      2520.00      180.000      2394.00    
  2700.00      180.000      2391.47      2700.00      180.000      2391.47    
  2880.00      180.000      2390.47      2880.00      180.000      2390.47    
  3060.00      180.000      2393.97      3060.00      180.000      2393.97    
  3240.00      180.000      2397.46      3240.00      180.000      2397.46    
  3420.00      180.000      2407.34      3420.00      180.000      2407.34    

  .000000E+00  360.000      2451.41      .000000E+00  360.000      2451.41    
  180.000      360.000      2444.05      180.000      360.000      2444.05    
  360.000      360.000      2436.41      360.000      360.000      2436.41    
  540.000      360.000      2429.32      540.000      360.000      2429.32    
  720.000      360.000      2422.82      720.000      360.000      2422.82    
  900.000      360.000      2417.32      900.000      360.000      2417.32    
  1080.00      360.000      2412.58      1080.00      360.000      2412.58    
  1260.00      360.000      2408.28      1260.00      360.000      2408.28    
  1440.00      360.000      2405.06      1440.00      360.000      2405.06    
  1620.00      360.000      2402.20      1620.00      360.000      2402.20    
  1800.00      360.000      2399.95      1800.00      360.000      2399.95    
  1980.00      360.000      2398.31      1980.00      360.000      2398.31    
  2160.00      360.000      2396.79      2160.00      360.000      2396.79    
  2340.00      360.000      2394.80      2340.00      360.000      2394.80    
  2520.00      360.000      2392.05      2520.00      360.000      2392.05    
  2700.00      360.000      2388.88      2700.00      360.000      2388.88    
  2880.00      360.000      2387.45      2880.00      360.000      2387.45    
  3060.00      360.000      2388.71      3060.00      360.000      2388.71    
  3240.00      360.000      2394.58      3240.00      360.000      2394.58    
  3420.00      360.000      2404.12      3420.00      360.000      2404.12    

  .000000E+00  540.000      2451.04      .000000E+00  540.000      2451.04    
  180.000      540.000      2441.70      180.000      540.000      2441.70    
  360.000      540.000      2433.74      360.000      540.000      2433.74    
  540.000      540.000      2426.70      540.000      540.000      2426.70    
  720.000      540.000      2420.15      720.000      540.000      2420.15    
  900.000      540.000      2414.37      900.000      540.000      2414.37    
  1080.00      540.000      2409.27      1080.00      540.000      2409.27    
  1260.00      540.000      2405.19      1260.00      540.000      2405.19    
  1440.00      540.000      2401.65      1440.00      540.000      2401.65    
  1620.00      540.000      2398.56      1620.00      540.000      2398.56    
  1800.00      540.000      2395.71      1800.00      540.000      2395.71    
  1980.00      540.000      2393.54      1980.00      540.000      2393.54    
  2160.00      540.000      2392.12      2160.00      540.000      2392.12    
  2340.00      540.000      2390.90      2340.00      540.000      2390.90    
  2520.00      540.000      2388.98      2520.00      540.000      2388.98    
  2700.00      540.000      2386.12      2700.00      540.000      2386.12    
  2880.00      540.000      2384.60      2880.00      540.000      2384.60    
  3060.00      540.000      2385.89      3060.00      540.000      2385.89    
  3240.00      540.000      2391.40      3240.00      540.000      2391.40    
  3420.00      540.000      2400.01      3420.00      540.000      2400.01    

  .000000E+00  720.000      2445.17      .000000E+00  720.000      2445.17    
  180.000      720.000      2438.04      180.000      720.000      2438.04    
  360.000      720.000      2430.96      360.000      720.000      2430.96    
  540.000      720.000      2423.94      540.000      720.000      2423.94    
  720.000      720.000      2417.34      720.000      720.000      2417.34    
  900.000      720.000      2411.26      900.000      720.000      2411.26    
  1080.00      720.000      2406.15      1080.00      720.000      2406.15    
  1260.00      720.000      2402.17      1260.00      720.000      2402.17    
  1440.00      720.000      2398.61      1440.00      720.000      2398.61    
  1620.00      720.000      2395.22      1620.00      720.000      2395.22    
  1800.00      720.000      2391.90      1800.00      720.000      2391.90    
  1980.00      720.000      2389.07      1980.00      720.000      2389.07    
  2160.00      720.000      2387.16      2160.00      720.000      2387.16    
  2340.00      720.000      2385.97      2340.00      720.000      2385.97    
  2520.00      720.000      2384.60      2520.00      720.000      2384.60    
  2700.00      720.000      2382.66      2700.00      720.000      2382.66    
  2880.00      720.000      2381.37      2880.00      720.000      2381.37    
  3060.00      720.000      2382.64      3060.00      720.000      2382.64    
  3240.00      720.000      2389.41      3240.00      720.000      2389.41    
  3420.00      720.000      2399.99      3420.00      720.000      2399.99    

  .000000E+00  900.000      2440.31      .000000E+00  900.000      2440.31    
  180.000      900.000      2434.60      180.000      900.000      2434.60    
  360.000      900.000      2427.61      360.000      900.000      2427.61    
  540.000      900.000      2420.72      540.000      900.000      2420.72    
  720.000      900.000      2414.21      720.000      900.000      2414.21    
  900.000      900.000      2408.00      900.000      900.000      2408.00    
  1080.00      900.000      2403.37      1080.00      900.000      2403.37    
  1260.00      900.000      2399.35      1260.00      900.000      2399.35    
  1440.00      900.000      2395.76      1440.00      900.000      2395.76    
  1620.00      900.000      2392.20      1620.00      900.000      2392.20    
  1800.00      900.000      2388.56      1800.00      900.000      2388.56    
  1980.00      900.000      2385.19      1980.00      900.000      2385.19    
  2160.00      900.000      2382.68      2160.00      900.000      2382.68    
  2340.00      900.000      2381.12      2340.00      900.000      2381.12    
  2520.00      900.000      2380.04      2520.00      900.000      2380.04    
  2700.00      900.000      2378.74      2700.00      900.000      2378.74    
  2880.00      900.000      2377.85      2880.00      900.000      2377.85    
  3060.00      900.000      2379.57      3060.00      900.000      2379.57    
  3240.00      900.000      2387.50      3240.00      900.000      2387.50    
  3420.00      900.000      2399.80      3420.00      900.000      2399.80    

  .000000E+00  1080.00      2437.50      .000000E+00  1080.00      2437.50    
  180.000      1080.00      2430.93      180.000      1080.00      2430.93    
  360.000      1080.00      2424.30      360.000      1080.00      2424.30    
  540.000      1080.00      2417.55      540.000      1080.00      2417.55    
  720.000      1080.00      2411.10      720.000      1080.00      2411.10    
  900.000      1080.00      2405.45      900.000      1080.00      2405.45    
  1080.00      1080.00      2400.74      1080.00      1080.00      2400.74    
  1260.00      1080.00      2396.73      1260.00      1080.00      2396.73    
  1440.00      1080.00      2392.94      1440.00      1080.00      2392.94    
  1620.00      1080.00      2389.04      1620.00      1080.00      2389.04    
  1800.00      1080.00      2385.13      1800.00      1080.00      2385.13    
  1980.00      1080.00      2381.70      1980.00      1080.00      2381.70    
  2160.00      1080.00      2379.06      2160.00      1080.00      2379.06    
  2340.00      1080.00      2377.07      2340.00      1080.00      2377.07    
  2520.00      1080.00      2375.77      2520.00      1080.00      2375.77    
  2700.00      1080.00      2374.67      2700.00      1080.00      2374.67    
  2880.00      1080.00      2374.20      2880.00      1080.00      2374.20    
  3060.00      1080.00      2375.88      3060.00      1080.00      2375.88    
  3240.00      1080.00      2384.08      3240.00      1080.00      2384.08    
  3420.00      1080.00      2397.53      3420.00      1080.00      2397.53    

  .000000E+00  1260.00      2433.52      .000000E+00  1260.00      2433.52    
  180.000      1260.00      2426.80      180.000      1260.00      2426.80    
  360.000      1260.00      2420.77      360.000      1260.00      2420.77    
  540.000      1260.00      2414.66      540.000      1260.00      2414.66    
  720.000      1260.00      2408.37      720.000      1260.00      2408.37    
  900.000      1260.00      2403.00      900.000      1260.00      2403.00    
  1080.00      1260.00      2398.26      1080.00      1260.00      2398.26    
  1260.00      1260.00      2393.95      1260.00      1260.00      2393.95    
  1440.00      1260.00      2389.57      1440.00      1260.00      2389.57    
  1620.00      1260.00      2385.10      1620.00      1260.00      2385.10    
  1800.00      1260.00      2381.26      1800.00      1260.00      2381.26    
  1980.00      1260.00      2378.62      1980.00      1260.00      2378.62    
  2160.00      1260.00      2376.68      2160.00      1260.00      2376.68    
  2340.00      1260.00      2374.70      2340.00      1260.00      2374.70    
  2520.00      1260.00      2372.72      2520.00      1260.00      2372.72    
  2700.00      1260.00      2371.11      2700.00      1260.00      2371.11    
  2880.00      1260.00      2370.52      2880.00      1260.00      2370.52    
  3060.00      1260.00      2371.53      3060.00      1260.00      2371.53    
  3240.00      1260.00      2379.80      3240.00      1260.00      2379.80    
  3420.00      1260.00      2394.48      3420.00      1260.00      2394.48    

  .000000E+00  1440.00      2427.37      .000000E+00  1440.00      2427.37    
  180.000      1440.00      2422.64      180.000      1440.00      2422.64    
  360.000      1440.00      2417.13      360.000      1440.00      2417.13    
  540.000      1440.00      2411.23      540.000      1440.00      2411.23    
  720.000      1440.00      2405.52      720.000      1440.00      2405.52    
  900.000      1440.00      2400.13      900.000      1440.00      2400.13    
  1080.00      1440.00      2395.29      1080.00      1440.00      2395.29    
  1260.00      1440.00      2390.40      1260.00      1440.00      2390.40    
  1440.00      1440.00      2385.40      1440.00      1440.00      2385.40    
  1620.00      1440.00      2380.71      1620.00      1440.00      2380.71    
  1800.00      1440.00      2377.52      1800.00      1440.00      2377.52    
  1980.00      1440.00      2376.02      1980.00      1440.00      2376.02    
  2160.00      1440.00      2374.94      2160.00      1440.00      2374.94    
  2340.00      1440.00      2373.28      2340.00      1440.00      2373.28    
  2520.00      1440.00      2370.58      2520.00      1440.00      2370.58    
  2700.00      1440.00      2367.73      2700.00      1440.00      2367.73    
  2880.00      1440.00      2367.48      2880.00      1440.00      2367.48    
  3060.00      1440.00      2369.53      3060.00      1440.00      2369.53    
  3240.00      1440.00      2377.77      3240.00      1440.00      2377.77    
  3420.00      1440.00      2391.08      3420.00      1440.00      2391.08    

  .000000E+00  1620.00      2424.07      .000000E+00  1620.00      2424.07    
  180.000      1620.00      2418.90      180.000      1620.00      2418.90    
  360.000      1620.00      2413.50      360.000      1620.00      2413.50    
  540.000      1620.00      2407.76      540.000      1620.00      2407.76    
  720.000      1620.00      2402.17      720.000      1620.00      2402.17    
  900.000      1620.00      2396.98      900.000      1620.00      2396.98    
  1080.00      1620.00      2391.87      1080.00      1620.00      2391.87    
  1260.00      1620.00      2386.41      1260.00      1620.00      2386.41    
  1440.00      1620.00      2381.05      1440.00      1620.00      2381.05    
  1620.00      1620.00      2376.87      1620.00      1620.00      2376.87    
  1800.00      1620.00      2374.63      1800.00      1620.00      2374.63    
  1980.00      1620.00      2373.57      1980.00      1620.00      2373.57    
  2160.00      1620.00      2372.69      2160.00      1620.00      2372.69    
  2340.00      1620.00      2371.02      2340.00      1620.00      2371.02    
  2520.00      1620.00      2367.70      2520.00      1620.00      2367.70    
  2700.00      1620.00      2363.72      2700.00      1620.00      2363.72    
  2880.00      1620.00      2363.77      2880.00      1620.00      2363.77    
  3060.00      1620.00      2367.60      3060.00      1620.00      2367.60    
  3240.00      1620.00      2376.73      3240.00      1620.00      2376.73    
  3420.00      1620.00      2389.30      3420.00      1620.00      2389.30    

  .000000E+00  1800.00      2422.22      .000000E+00  1800.00      2422.22    
  180.000      1800.00      2416.47      180.000      1800.00      2416.47    
  360.000      1800.00      2410.77      360.000      1800.00      2410.77    
  540.000      1800.00      2405.02      540.000      1800.00      2405.02    
  720.000      1800.00      2399.44      720.000      1800.00      2399.44    
  900.000      1800.00      2394.15      900.000      1800.00      2394.15    
  1080.00      1800.00      2388.65      1080.00      1800.00      2388.65    
  1260.00      1800.00      2382.83      1260.00      1800.00      2382.83    
  1440.00      1800.00      2377.40      1440.00      1800.00      2377.40    
  1620.00      1800.00      2373.75      1620.00      1800.00      2373.75    
  1800.00      1800.00      2371.88      1800.00      1800.00      2371.88    
  1980.00      1800.00      2370.66      1980.00      1800.00      2370.66    
  2160.00      1800.00      2369.64      2160.00      1800.00      2369.64    
  2340.00      1800.00      2367.84      2340.00      1800.00      2367.84    
  2520.00      1800.00      2364.24      2520.00      1800.00      2364.24    
  2700.00      1800.00      2359.52      2700.00      1800.00      2359.52    
  2880.00      1800.00      2360.20      2880.00      1800.00      2360.20    
  3060.00      1800.00      2365.98      3060.00      1800.00      2365.98    
  3240.00      1800.00      2375.90      3240.00      1800.00      2375.90    
  3420.00      1800.00      2387.32      3420.00      1800.00      2387.32    

  .000000E+00  1980.00      2420.09      .000000E+00  1980.00      2420.09    
  180.000      1980.00      2415.05      180.000      1980.00      2415.05    
  360.000      1980.00      2409.46      360.000      1980.00      2409.46    
  540.000      1980.00      2403.47      540.000      1980.00      2403.47    
  720.000      1980.00      2397.67      720.000      1980.00      2397.67    
  900.000      1980.00      2391.85      900.000      1980.00      2391.85    
  1080.00      1980.00      2385.74      1080.00      1980.00      2385.74    
  1260.00      1980.00      2379.53      1260.00      1980.00      2379.53    
  1440.00      1980.00      2374.32      1440.00      1980.00      2374.32    
  1620.00      1980.00      2370.86      1620.00      1980.00      2370.86    
  1800.00      1980.00      2368.60      1800.00      1980.00      2368.60    
  1980.00      1980.00      2367.14      1980.00      1980.00      2367.14    
  2160.00      1980.00      2366.11      2160.00      1980.00      2366.11    
  2340.00      1980.00      2364.56      2340.00      1980.00      2364.56    
  2520.00      1980.00      2360.90      2520.00      1980.00      2360.90    
  2700.00      1980.00      2355.47      2700.00      1980.00      2355.47    
  2880.00      1980.00      2357.88      2880.00      1980.00      2357.88    
  3060.00      1980.00      2366.76      3060.00      1980.00      2366.76    
  3240.00      1980.00      2376.79      3240.00      1980.00      2376.79    
  3420.00      1980.00      2384.51      3420.00      1980.00      2384.51    

  .000000E+00  2160.00      2420.51      .000000E+00  2160.00      2420.51    
  180.000      2160.00      2414.37      180.000      2160.00      2414.37    
  360.000      2160.00      2408.32      360.000      2160.00      2408.32    
  540.000      2160.00      2402.24      540.000      2160.00      2402.24    
  720.000      2160.00      2396.07      720.000      2160.00      2396.07    
  900.000      2160.00      2389.60      900.000      2160.00      2389.60    
  1080.00      2160.00      2382.68      1080.00      2160.00      2382.68    
  1260.00      2160.00      2376.20      1260.00      2160.00      2376.20    
  1440.00      2160.00      2371.24      1440.00      2160.00      2371.24    
  1620.00      2160.00      2367.68      1620.00      2160.00      2367.68    
  1800.00      2160.00      2365.06      1800.00      2160.00      2365.06    
  1980.00      2160.00      2363.23      1980.00      2160.00      2363.23    
  2160.00      2160.00      2361.89      2160.00      2160.00      2361.89    
  2340.00      2160.00      2360.21      2340.00      2160.00      2360.21    
  2520.00      2160.00      2356.80      2520.00      2160.00      2356.80    
  2700.00      2160.00      2351.75      2700.00      2160.00      2351.75    
  2880.00      2160.00      2354.24      2880.00      2160.00      2354.24    
  3060.00      2160.00      2363.02      3060.00      2160.00      2363.02    
  3240.00      2160.00      2372.54      3240.00      2160.00      2372.54    
  3420.00      2160.00      2380.55      3420.00      2160.00      2380.55    

  .000000E+00  2340.00      2420.21      .000000E+00  2340.00      2420.21    
  180.000      2340.00      2413.36      180.000      2340.00      2413.36    
  360.000      2340.00      2406.69      360.000      2340.00      2406.69    
  540.000      2340.00      2400.30      540.000      2340.00      2400.30    
  720.000      2340.00      2393.83      720.000      2340.00      2393.83    
  900.000      2340.00      2386.63      900.000      2340.00      2386.63    
  1080.00      2340.00      2379.20      1080.00      2340.00      2379.20    
  1260.00      2340.00      2373.04      1260.00      2340.00      2373.04    
  1440.00      2340.00      2367.99      1440.00      2340.00      2367.99    
  1620.00      2340.00      2363.81      1620.00      2340.00      2363.81    
  1800.00      2340.00      2360.94      1800.00      2340.00      2360.94    
  1980.00      2340.00      2358.81      1980.00      2340.00      2358.81    
  2160.00      2340.00      2356.92      2160.00      2340.00      2356.92    
  2340.00      2340.00      2354.78      2340.00      2340.00      2354.78    
  2520.00      2340.00      2351.61      2520.00      2340.00      2351.61    
  2700.00      2340.00      2348.55      2700.00      2340.00      2348.55    
  2880.00      2340.00      2352.82      2880.00      2340.00      2352.82    
  3060.00      2340.00      2360.82      3060.00      2340.00      2360.82    
  3240.00      2340.00      2369.55      3240.00      2340.00      2369.55    
  3420.00      2340.00      2378.81      3420.00      2340.00      2378.81    

  .000000E+00  2520.00      2417.72      .000000E+00  2520.00      2417.72    
  180.000      2520.00      2410.41      180.000      2520.00      2410.41    
  360.000      2520.00      2403.50      360.000      2520.00      2403.50    
  540.000      2520.00      2397.28      540.000      2520.00      2397.28    
  720.000      2520.00      2390.51      720.000      2520.00      2390.51    
  900.000      2520.00      2382.70      900.000      2520.00      2382.70    
  1080.00      2520.00      2375.72      1080.00      2520.00      2375.72    
  1260.00      2520.00      2370.06      1260.00      2520.00      2370.06    
  1440.00      2520.00      2364.46      1440.00      2520.00      2364.46    
  1620.00      2520.00      2359.71      1620.00      2520.00      2359.71    
  1800.00      2520.00      2356.57      1800.00      2520.00      2356.57    
  1980.00      2520.00      2354.25      1980.00      2520.00      2354.25    
  2160.00      2520.00      2351.93      2160.00      2520.00      2351.93    
  2340.00      2520.00      2349.61      2340.00      2520.00      2349.61    
  2520.00      2520.00      2346.81      2520.00      2520.00      2346.81    
  2700.00      2520.00      2345.96      2700.00      2520.00      2345.96    
  2880.00      2520.00      2350.94      2880.00      2520.00      2350.94    
  3060.00      2520.00      2358.33      3060.00      2520.00      2358.33    
  3240.00      2520.00      2368.06      3240.00      2520.00      2368.06    
  3420.00      2520.00      2378.83      3420.00      2520.00      2378.83    

  .000000E+00  2700.00      2413.65      .000000E+00  2700.00      2413.65    
  180.000      2700.00      2405.95      180.000      2700.00      2405.95    
  360.000      2700.00      2399.03      360.000      2700.00      2399.03    
  540.000      2700.00      2392.87      540.000      2700.00      2392.87    
  720.000      2700.00      2385.75      720.000      2700.00      2385.75    
  900.000      2700.00      2378.38      900.000      2700.00      2378.38    
  1080.00      2700.00      2372.59      1080.00      2700.00      2372.59    
  1260.00      2700.00      2367.04      1260.00      2700.00      2367.04    
  1440.00      2700.00      2361.10      1440.00      2700.00      2361.10    
  1620.00      2700.00      2356.20      1620.00      2700.00      2356.20    
  1800.00      2700.00      2352.72      1800.00      2700.00      2352.72    
  1980.00      2700.00      2349.86      1980.00      2700.00      2349.86    
  2160.00      2700.00      2346.94      2160.00      2700.00      2346.94    
  2340.00      2700.00      2344.45      2340.00      2700.00      2344.45    
  2520.00      2700.00      2343.18      2520.00      2700.00      2343.18    
  2700.00      2700.00      2344.20      2700.00      2700.00      2344.20    
  2880.00      2700.00      2348.10      2880.00      2700.00      2348.10    
  3060.00      2700.00      2355.29      3060.00      2700.00      2355.29    
  3240.00      2700.00      2366.31      3240.00      2700.00      2366.31    
  3420.00      2700.00      2378.14      3420.00      2700.00      2378.14    

  .000000E+00  2880.00      2408.55      .000000E+00  2880.00      2408.55    
  180.000      2880.00      2401.28      180.000      2880.00      2401.28    
  360.000      2880.00      2394.61      360.000      2880.00      2394.61    
  540.000      2880.00      2388.16      540.000      2880.00      2388.16    
  720.000      2880.00      2380.97      720.000      2880.00      2380.97    
  900.000      2880.00      2375.03      900.000      2880.00      2375.03    
  1080.00      2880.00      2370.12      1080.00      2880.00      2370.12    
  1260.00      2880.00      2364.10      1260.00      2880.00      2364.10    
  1440.00      2880.00      2358.09      1440.00      2880.00      2358.09    
  1620.00      2880.00      2353.14      1620.00      2880.00      2353.14    
  1800.00      2880.00      2349.31      1800.00      2880.00      2349.31    
  1980.00      2880.00      2345.95      1980.00      2880.00      2345.95    
  2160.00      2880.00      2342.80      2160.00      2880.00      2342.80    
  2340.00      2880.00      2340.86      2340.00      2880.00      2340.86    
  2520.00      2880.00      2341.17      2520.00      2880.00      2341.17    
  2700.00      2880.00      2342.87      2700.00      2880.00      2342.87    
  2880.00      2880.00      2345.53      2880.00      2880.00      2345.53    
  3060.00      2880.00      2351.95      3060.00      2880.00      2351.95    
  3240.00      2880.00      2363.35      3240.00      2880.00      2363.35    
  3420.00      2880.00      2376.92      3420.00      2880.00      2376.92    

  .000000E+00  3060.00      2404.83      .000000E+00  3060.00      2404.83    
  180.000      3060.00      2397.86      180.000      3060.00      2397.86    
  360.000      3060.00      2392.12      360.000      3060.00      2392.12    
  540.000      3060.00      2386.09      540.000      3060.00      2386.09    
  720.000      3060.00      2379.01      720.000      3060.00      2379.01    
  900.000      3060.00      2373.40      900.000      3060.00      2373.40    
  1080.00      3060.00      2367.86      1080.00      3060.00      2367.86    
  1260.00      3060.00      2361.45      1260.00      3060.00      2361.45    
  1440.00      3060.00      2355.39      1440.00      3060.00      2355.39    
  1620.00      3060.00      2350.33      1620.00      3060.00      2350.33    
  1800.00      3060.00      2346.35      1800.00      3060.00      2346.35    
  1980.00      3060.00      2343.12      1980.00      3060.00      2343.12    
  2160.00      3060.00      2340.68      2160.00      3060.00      2340.68    
  2340.00      3060.00      2340.23      2340.00      3060.00      2340.23    
  2520.00      3060.00      2341.71      2520.00      3060.00      2341.71    
  2700.00      3060.00      2343.57      2700.00      3060.00      2343.57    
  2880.00      3060.00      2345.92      2880.00      3060.00      2345.92    
  3060.00      3060.00      2351.21      3060.00      3060.00      2351.21    
  3240.00      3060.00      2362.51      3240.00      3060.00      2362.51    
  3420.00      3060.00      2377.28      3420.00      3060.00      2377.28    

  .000000E+00  3240.00      2403.57      .000000E+00  3240.00      2403.57    
  180.000      3240.00      2396.27      180.000      3240.00      2396.27    
  360.000      3240.00      2390.92      360.000      3240.00      2390.92    
  540.000      3240.00      2385.36      540.000      3240.00      2385.36    
  720.000      3240.00      2378.29      720.000      3240.00      2378.29    
  900.000      3240.00      2371.96      900.000      3240.00      2371.96    
  1080.00      3240.00      2365.52      1080.00      3240.00      2365.52    
  1260.00      3240.00      2359.07      1260.00      3240.00      2359.07    
  1440.00      3240.00      2353.11      1440.00      3240.00      2353.11    
  1620.00      3240.00      2347.97      1620.00      3240.00      2347.97    
  1800.00      3240.00      2343.97      1800.00      3240.00      2343.97    
  1980.00      3240.00      2341.19      1980.00      3240.00      2341.19    
  2160.00      3240.00      2339.98      2160.00      3240.00      2339.98    
  2340.00      3240.00      2341.53      2340.00      3240.00      2341.53    
  2520.00      3240.00      2344.73      2520.00      3240.00      2344.73    
  2700.00      3240.00      2347.41      2700.00      3240.00      2347.41    
  2880.00      3240.00      2349.35      2880.00      3240.00      2349.35    
  3060.00      3240.00      2353.24      3060.00      3240.00      2353.24    